Name,SMILES,Melting_Point_Average(K)
2-phenylazo-1Butyl-3-methylimidazolium  bis(pentafluoroethylsulfonyl)amide,CCCCn1cc[n+](C)c1N=Nc1ccccc1.O=S(=O)([N-]S(=O)(=O)C(F)(F)C(F)(F)F)C(F)(F)C(F)(F)F,313
2-phenylazo-1Butyl-3-methylimidazolium bis((trifluoromethyl)sulfonyl)imide,CCCCn1cc[n+](C)c1N=Nc1ccccc1.O=S(=O)([N-]S(=O)(=O)C(F)(F)F)C(F)(F)F,329
1-butyl-3-ethylimidazolium trifluoroacetate,CCCCn1cc[n+](CC)c1.O=C([O-])C(F)(F)F,233.15
1-butyl-3-ethylimidazolium bis((trifluoromethyl)sulfonyl)imide,CCCCn1cc[n+](CC)c1.O=S(=O)([N-]S(=O)(=O)C(F)(F)F)C(F)(F)F,233.15
1-butyl-3-ethylimidazolium perfluorobutylsulfonate,CCCCn1cc[n+](CC)c1.O=S(=O)([O-])C(F)(F)C(F)(F)C(F)(F)C(F)(F)F,294.15
1-butyl-3-ethylimidazolium trifluoromethanesulfonate,CCCCn1cc[n+](CC)c1.O=S(=O)([O-])C(F)(F)F,275
"1,1'-dibutyl-3,3'-di-(4,4,4-trifluorobutyl)-2,2'-biimidazolium di[bis(trifluoromethanesulfonyl)amide]",CCCCn1cc[n+](CCCC(F)(F)F)c1-c1n(CCCC)cc[n+]1CCCC(F)(F)F.O=S(=O)([N-]S(=O)(=O)C(F)(F)F)C(F)(F)F.O=S(=O)([N-]S(=O)(=O)C(F)(F)F)C(F)(F)F,392.15
"1,3,1',3'-Tetrabutyl-2,2'-biimidazolium di[bis-
(trifluoromethanesulfonyl)amide]",CCCCn1cc[n+](CCCC)c1-c1n(CCCC)cc[n+]1CCCC.O=S(=O)([N-]S(=O)(=O)C(F)(F)F)C(F)(F)F.O=S(=O)([N-]S(=O)(=O)C(F)(F)F)C(F)(F)F,368.15
"1,3-dibutylimidazolium Bromide",CCCCn1cc[n+](CCCC)c1.[Br-],328.15
"1,3-dibutylimidazolium chloride",CCCCn1cc[n+](CCCC)c1.[Cl-],328.15
1-butyl-3-[3-(diethoxyphosphinyl) propyl]-1H-imidazolium tetrafluoroborate,CCCCn1cc[n+](CCCP(=O)(OCC)OCC)c1.F[B-](F)(F)F,208.85
1-butyl-3-[3-(diethoxyphosphinyl) propyl]-1H-imidazolium hexafluorophosphate,CCCCn1cc[n+](CCCP(=O)(OCC)OCC)c1.F[P-](F)(F)(F)(F)F,220.65
1-butyl-3-[2-(diethoxyphosphinyl) ethyl]-1H-imidazolium tetrafluoroborate,CCCCn1cc[n+](CCP(=O)(OCC)OCC)c1.F[B-](F)(F)F,192.65
1-butyl-3-[2-(diethoxyphosphinyl) ethyl]-1H-imidazolium hexafluorophosphate,CCCCn1cc[n+](CCP(=O)(OCC)OCC)c1.F[P-](F)(F)(F)(F)F,222.95
"1-amino-3-n-butyl-1,2,3-triazolium nitrate",CCCCn1cc[n+](N)n1.O=[N+]([O-])[O-],321.15
1-butylimidazolium  L-lactate,CCCCn1cc[nH+]c1.C[C@H](O)C(=O)[O-],298.15
N-butylimidazolium trifluoroacetate,CCCCn1cc[nH+]c1.O=C([O-])C(F)(F)F,321.1
N-butylimidazolium salicylate,CCCCn1cc[nH+]c1.O=C([O-])c1ccccc1O,318.1
N-butylimidazolium trifluoromethanesulfonate,CCCCn1cc[nH+]c1.O=S(=O)([O-])C(F)(F)F,296.1
1-Butylimidazolium Nitrate,CCCCn1cc[nH+]c1.O=[N+]([O-])[O-],279.15
"1,3-dibutylbenzotriazolium tetrafluoroborate",CCCCn1n[n+](CCCC)c2ccccc21.F[B-](F)(F)F,358.15
"1,3-dibutylbenzotriazolium hexafluorophosphate",CCCCn1n[n+](CCCC)c2ccccc21.F[P-](F)(F)(F)(F)F,386.15
"1,3-dibutylbenzotriazolium bromide",CCCCn1n[n+](CCCC)c2ccccc21.[Br-],361.15
3-[2-(3-propoxylphenyl)-2-oxoethyl]-1-methylimidazolium bromide,CCCOc1cccc(C(=O)C[n+]2ccn(C)c2)c1.[Br-],358.15
1-propylhexahydrothiopyrylium bis((trifluoromethyl)sulfonyl)amide,CCCS[O+]1CCCCC1.O=S(=O)([N-]S(=O)(=O)C(F)(F)F)C(F)(F)F,303.1
1-ethyl-3-methylimidazolium n-propyltrifluoroborate,CCC[B-](F)(F)F.CCn1cc[n+](C)c1,259.1
"N,N,N-trimethylpropanaminium bis((trifluoromethyl)sulfonyl)amide",CCC[N+](C)(C)C.O=S(=O)([N-]S(=O)(=O)C(F)(F)F)C(F)(F)F,292.25
"N-ethyl-N,N-dimethyl-1-propanaminium 1,1,1-trifluoro-N-[(trifluoromethyl)sulfonyl]methanesulfonamide",CCC[N+](C)(C)CC.O=S(=O)([N-]S(=O)(=O)C(F)(F)F)C(F)(F)F,261.125
"N-(2-hydroxyethyl)-N,N-dimethylpropanaminium bromide",CCC[N+](C)(C)CCO.[Br-],372.595
"N,N-diethyl-N-methylpropan-1-aminium trifluoro(perfluorobutyl)borate",CCC[N+](C)(CC)CC.F[B-](F)(F)C(F)(F)C(F)(F)C(F)(F)C(F)(F)F,327.125
"N,N-diethyl-N-methylpropan-1-aminium trifluoro(perfluoropropyl)borate",CCC[N+](C)(CC)CC.F[B-](F)(F)C(F)(F)C(F)(F)C(F)(F)F,330.125
"N,N-diethyl-N-methylpropan-1-aminium trifluoro(perfluoroethyl)borate",CCC[N+](C)(CC)CC.F[B-](F)(F)C(F)(F)C(F)(F)F,327.125
"N,N-diethyl-N-methylpropan-1-aminium trifluoro(trifluoromethyl)borate",CCC[N+](C)(CC)CC.F[B-](F)(F)C(F)(F)F,368.125
"N,N-diethyl-N-methylpropan-1-aminium tetrafluoroborate",CCC[N+](C)(CC)CC.F[B-](F)(F)F,459.125
"N,N-diethyl-N-methylpropan-1-aminium bis((trifluoromethyl)sulfonyl)amide",CCC[N+](C)(CC)CC.O=S(=O)([N-]S(=O)(=O)C(F)(F)F)C(F)(F)F,287.125
N-ethyl-N-methyl-N-propylpropan-1-aminium bis((trifluoromethyl)sulfonyl)imide,CCC[N+](C)(CC)CCC.O=S(=O)([N-]S(=O)(=O)C(F)(F)F)C(F)(F)F,288.1
methyltripropylammonium bis[(trifluoromethyl)sulfonyl]amide,CCC[N+](C)(CCC)CCC.O=S(=O)([N-]S(=O)(=O)C(F)(F)F)C(F)(F)F,319.1
tetrapropylammonium bis[(trifluoromethyl)sulfonyl]imide,CCC[N+](CCC)(CCC)CCC.O=S(=O)([N-]S(=O)(=O)C(F)(F)F)C(F)(F)F,378.125
tetrapropylammonium chloride,CCC[N+](CCC)(CCC)CCC.[Cl-],502.75
tetrapropylammonium perchlorate,CCC[N+](CCC)(CCC)CCC.[O-][Cl+3]([O-])([O-])[O-],514.1
"N,N,N-tri(n-propyl)(4-ethoxy-4-oxobutyl)-1-aminium bromide",CCC[N+](CCC)(CCC)CCCC(=O)OCC.[Br-],352.1
N-methyl-N-propyl-pyrrolidinium mesylate,CCC[N+]1(C)CCCC1.CS(=O)(=O)[O-],353.15
N-methyl-N-propyl-pyrrolidinium tosylate,CCC[N+]1(C)CCCC1.Cc1ccc(S(=O)(=O)[O-])cc1,353.15
1-methyl-1-propylpyrrolidinium hexafluorophosphate,CCC[N+]1(C)CCCC1.F[P-](F)(F)(F)(F)F,383.6
1-methyl-1-propylpyrrolidinium dicyanamide,CCC[N+]1(C)CCCC1.N#C[N-]C#N,251.625
N-methyl-N-propylpyrrolidinium cyanate,CCC[N+]1(C)CCCC1.N#C[O-],353.15
1-methyl-1-propylpyrrolidinium bis(fluorosulfonyl)amide,CCC[N+]1(C)CCCC1.O=S(=O)(F)[N-]S(=O)(=O)F,269
1-methyl-1-propylpyrrolidin-1-ium bis((perfluoroethyl)sulfonyl)amide,CCC[N+]1(C)CCCC1.O=S(=O)([N-]S(=O)(=O)C(F)(F)C(F)(F)F)C(F)(F)C(F)(F)F,279.6
1-methyl-1-propylpyrrolidinium bis[(trifluoromethyl)sulfonyl]imide,CCC[N+]1(C)CCCC1.O=S(=O)([N-]S(=O)(=O)C(F)(F)F)C(F)(F)F,283.0916667
N-methyl-N-propyl-pyrrolidinium perfluorobutylsulfonate,CCC[N+]1(C)CCCC1.O=S(=O)([O-])C(F)(F)C(F)(F)C(F)(F)C(F)(F)F,382.15
1-methyl-1-propylpyrrolidinium triflate,CCC[N+]1(C)CCCC1.O=S(=O)([O-])C(F)(F)F,350.7
N-methyl-N-propyl-pyrrolidinium bromide,CCC[N+]1(C)CCCC1.[Br-],380.15
1-methyl-1-propylpiperidinium bis(trifluoromethylsulfonyl)imide,CCC[N+]1(C)CCCCC1.O=S(=O)([N-]S(=O)(=O)C(F)(F)F)C(F)(F)F,284.725
1-methyl-1-propylpiperidinium bromide,CCC[N+]1(C)CCCCC1.[Br-],523
1-methyl-1-propyl-piperidinium chloride,CCC[N+]1(C)CCCCC1.[Cl-],498.4
N-propyl-N-methyloxazolidinium hexafluorophosphate,CCC[N+]1(C)CCOC1.F[P-](F)(F)(F)(F)F,314.15
N-propyl-N-methyloxazolidinium bis((trifluoromethyl)sulfonyl)imide,CCC[N+]1(C)CCOC1.O=S(=O)([N-]S(=O)(=O)C(F)(F)F)C(F)(F)F,317.15
N-propyl-N-methylmorpholinium hexafluorophosphate,CCC[N+]1(C)CCOCC1.F[P-](F)(F)(F)(F)F,359.15
N-propyl-N-methylmorpholinium nitrate,CCC[N+]1(C)CCOCC1.O=[N+]([O-])[O-],331.15
4-methyl-4-propylmorpholinium bromide,CCC[N+]1(C)CCOCC1.[Br-],453.94
N-propyl-N-methylmorpholinium perchlorate,CCC[N+]1(C)CCOCC1.[O-][Cl+3]([O-])([O-])[O-],364.15
1-propyl-quinuclidinium bis((trifluoromethyl)sulfonyl)imide,CCC[N+]12CCC(CC1)CC2.O=S(=O)([N-]S(=O)(=O)C(F)(F)F)C(F)(F)F,323.15
"N,N-dimethylpropan-1-aminium trifluoromethanesulfonate",CCC[NH+](C)C.O=S(=O)([O-])C(F)(F)F,293.1
N-methyl-N-propylpropan-1-aminium trifluoromethanesulfonate,CCC[NH+](C)CCC.O=S(=O)([O-])C(F)(F)F,290.1
"N,N-diethylpropan-1-aminium trifluoromethanesulfonate",CCC[NH+](CC)CC.O=S(=O)([O-])C(F)(F)F,259.1
"2,3,5-trimethyl-1-propyl-1H-pyrazolium 1,1,1-trifluoro-N-[(trifluoromethyl)sulfonyl]methanesulfonamide",CCC[NH+]1C(C)=CC(C)N1C.O=S(=O)([N-]S(=O)(=O)C(F)(F)F)C(F)(F)F,290.1
dipropylammonium thiocyanate,CCC[NH2+]CCC.N#C[S-],278.65
propylammonium formate,CCC[NH3+].O=C[O-],292.775
propylammonium nitrate,CCC[NH3+].O=[N+]([O-])[O-],276.775
ethyldipropylsulfonium dicyanoamide,CCC[S+](CC)CCC.N#C[N-]C#N,239.15
1-propyltetrahydro-1H-thiophen-1-ium bis((trifluoromethyl)sulfonyl)amide,CCC[S+]1CCCC1.O=S(=O)([N-]S(=O)(=O)C(F)(F)F)C(F)(F)F,298.1
1-phenylethanoyl-3-propylimidazolium bromide,CCC[n+]1cc[nH]c1CC(=O)c1ccccc1.[Br-],422.15
4-methyl-1-propylpyridinium bis((trifluoromethyl)sulfonyl)amide,CCC[n+]1ccc(C)cc1.O=S(=O)([N-]S(=O)(=O)C(F)(F)F)C(F)(F)F,301
1-propyl-3-methylpyridinium chloride,CCC[n+]1cccc(C)c1.[Cl-],365.1
1-propylpyridinium dicyanamide,CCC[n+]1ccccc1.N#C[N-]C#N,278.685
1-propylpyridinium bis((trifluoromethyl)sulfonyl)amide,CCC[n+]1ccccc1.O=S(=O)([N-]S(=O)(=O)C(F)(F)F)C(F)(F)F,317.6
1-propylpyridinium bromide,CCC[n+]1ccccc1.[Br-],342.8
2-methyl-1-propylpyridinium bis((trifluoromethyl)sulfonyl)amide,CCC[n+]1ccccc1C.O=S(=O)([N-]S(=O)(=O)C(F)(F)F)C(F)(F)F,289
1-methyl-3-propylimidazolium hexafluorophosphate,CCC[n+]1ccn(C)c1.F[P-](F)(F)(F)(F)F,306.2666667
1-methyl-3-propylimidazolium chloride,CCC[n+]1ccn(C)c1.[Cl-],334.4333333
1-methyl-3-propylimidazolium iodide,CCC[n+]1ccn(C)c1.[I-],290.75
"1,2-dimethyl-3-propylimidazolium hexafluorophosphate",CCC[n+]1ccn(C)c1C.F[P-](F)(F)(F)(F)F,351.125
"1,2-dimethyl-3-propylimidazolium bis[(trifluoromethyl)sulfonyl]imide",CCC[n+]1ccn(C)c1C.O=S(=O)([N-]S(=O)(=O)C(F)(F)F)C(F)(F)F,277.0983333
"1,2-dimethyl-3-propylimidazolium Bromide",CCC[n+]1ccn(C)c1C.[Br-],411.15
"1,2-dimethyl-3-propylimidazolium chloride",CCC[n+]1ccn(C)c1C.[Cl-],411.125
"1,1'-(butane-1,4-diyl)bis(3-propylimidazolium) bromide",CCC[n+]1ccn(CCCCn2cc[n+](CCC)c2)c1.[Br-].[Br-],351.9
1-benzyl-3-propylimidazolium trifluoromethanesulfonate,CCC[n+]1ccn(Cc2ccccc2)c1.O=S(=O)([O-])C(F)(F)F,318.4
"4-methyl-1-propyl-1,2,4-triazolium trifluoromethanesulfonate",CCC[n+]1cn(C)cn1.O=S(=O)([O-])C(F)(F)F,276.4
"N-fluoro-propyl-4,4_¢__?bipyridinium bis((trifluoromethyl)sulfonyl)imide",CCCc1cc(-c2cc[nH+]cc2)cc[n+]1F.O=S(=O)([N-]S(=O)(=O)C(F)(F)F)C(F)(F)F.O=S(=O)([N-]S(=O)(=O)C(F)(F)F)C(F)(F)F,335.15
"N-fluoro-propyl-4,4_¢__?bipyridinium trifluoromethanesulfonate",CCCc1cc(-c2cc[nH+]cc2)cc[n+]1F.O=S(=O)([O-])C(F)(F)F.O=S(=O)([O-])C(F)(F)F,361.15
1-methyl-3-propylpyridinium hexafluorophosphate,CCCc1ccc[n+](C)c1.F[P-](F)(F)(F)(F)F,311.2
"1-phenyl-3,5-dimethyl-2-propylpyrazolium methanesulfonate",CCCn1c(C)cc(C)[n+]1-c1ccccc1.CS(=O)(=O)[O-],365.6
"1-phenyl-3,5-dimethyl-2-propylpyrazolium tetrafluoroborate",CCCn1c(C)cc(C)[n+]1-c1ccccc1.F[B-](F)(F)F,353.1
1-propyl-3-methylimidazolium (nonafluoro-n-butyl)trifluoroborate,CCCn1cc[n+](C)c1.F[B-](F)(F)C(F)(F)C(F)(F)C(F)(F)C(F)(F)F,261.15
1-propyl-3-methylimidazolium (heptafluoro-n-propyl)trifluoroborate,CCCn1cc[n+](C)c1.F[B-](F)(F)C(F)(F)C(F)(F)C(F)(F)F,268.15
1-propyl-3-methylimidazolium pentafluoroethyltrifluoroborate,CCCn1cc[n+](C)c1.F[B-](F)(F)C(F)(F)C(F)(F)F,231.15
1-propyl-3-methylimidazolium trifluoromethyltrifluoroborate,CCCn1cc[n+](C)c1.F[B-](F)(F)C(F)(F)F,252.15
1-propyl-3-methylimidazolium tetrafluoroborate,CCCn1cc[n+](C)c1.F[B-](F)(F)F,255.0083334
1-propyl-3-methylimidazolium hexafluorophosphate,CCCn1cc[n+](C)c1.F[P-](F)(F)(F)(F)F,306.8166667
1-propyl-3-methylimidazolium perfluorobutylsulfonate,CCCn1cc[n+](C)c1.O=S(=O)([O-])C(F)(F)C(F)(F)C(F)(F)C(F)(F)F,306.15
1-propyl-3-methylimidazolium chloride,CCCn1cc[n+](C)c1.[Cl-],333.15
"1-propyl-2,3-dimethylimidazolium bis((trifluoromethyl)sulfonyl)imide",CCCn1cc[n+](C)c1C.O=S(=O)([N-]S(=O)(=O)C(F)(F)F)C(F)(F)F,286.35
"1,3-dipropylimidazolium bis((trifluoromethyl)sulfonyl)imide",CCCn1cc[n+](CCC)c1.O=S(=O)([N-]S(=O)(=O)C(F)(F)F)C(F)(F)F,283.9
"1,3-dipropyl-2-isobutylimidazolium bromide",CCCn1cc[n+](CCC)c1CC(C)C.[Br-],435.65
"1-amino-3-n-propyl-1,2,3-triazolium nitrate",CCCn1cc[n+](N)n1.O=[N+]([O-])[O-],306.15
1-propylimidazolium  L-lactate,CCCn1cc[nH+]c1.C[C@H](O)C(=O)[O-],298.15
triethylamine Mesylate,CCN(CC)CC.CS(=O)(=O)O,297.45
tris(diethylamino)cyclopropenium bis(trifluoromethansulfonyl)amide,CCN(CC)c1c(N(CC)CC)c1=[N+](CC)CC.O=S(=O)([N-]S(=O)(=O)C(F)(F)F)C(F)(F)F,293.6
diethylamine Mesylate,CCNCC.CS(=O)(=O)O,318.25
diethylamine Formate,CCNCC.O=CO,308.95
"N,N,N-triethyl(4-ethoxy-4-oxobutyl)-1-aminium bromide",CCOC(=O)CCC[N+](CC)(CC)CC.[Br-],351.1
1-(4-ethoxy-4-oxobutyl)-1-methylpyrrolidinium bromide,CCOC(=O)CCC[N+]1(C)CCCC1.[Br-],346.1
"N,N,N-trimethyl-N-(ethoxycarbonylmethyl)ammonium methylsulfate",CCOC(=O)C[N+](C)(C)C.COS(=O)(=O)[O-],311.15
"N,N-dimethyl-N-ethyl-N-(ethoxycarbonylmethyl)ammonium ethylsulfate",CCOC(=O)C[N+](C)(C)CC.CCOS(=O)(=O)[O-],294.15
N-methyl-N-(2-ethoxy-2-oxoethyl)morpholinium bromide,CCOC(=O)C[N+]1(C)CCOCC1.[Br-],424.7
3-methyl-1-(ethoxycarbonylmethyl)imidazolium dicyanoamide,CCOC(=O)Cn1cc[n+](C)c1.N#C[N-]C#N,308.15
1-(1-(R)-ethoxycarbonyl-ethyl)-3-methylimidazolium bis((trifluoromethyl)sulfonyl)imide,CCOC(=O)[C@@H](C)n1cc[n+](C)c1.O=S(=O)([N-]S(=O)(=O)C(F)(F)F)C(F)(F)F,318.15
1-(1-(R)-ethoxycarbonyl-ethyl)-3-methylimidazolium trifluoromethanesulfonate,CCOC(=O)[C@@H](C)n1cc[n+](C)c1.O=S(=O)([O-])C(F)(F)F,346.15
L-phenylalanine ethyl ester bis(perfluoroethylsulfonyl)imide,CCOC(=O)[C@@H]([NH3+])Cc1ccccc1.O=S(=O)([N-]S(=O)(=O)C(F)(F)C(F)(F)F)C(F)(F)C(F)(F)F,372.88
"(S)-2-(ethoxycarbonyl)-1,1-diethylpyrrolidin-1-ium bromide",CCOC(=O)[C@@H]1CCC[N+]1(CC)CC.[Br-],376
Diethoxymethylene-dimethylammonium tetrafluoroborate,CCOC(OCC)=[N+](C)C.F[B-](F)(F)F,309.05
Ethoxymethylene-dimethyl-ethylammonium tetrafluoroborate,CCOC=C(C)[NH+](C)C.F[B-](F)(F)F,280.95
Ethoxymethylene-ethoxyethyl-ethylammonium tetrafluoroborate,CCOC=[N+](CC)CCOCC.F[B-](F)(F)F,279.55
"(ethoxymethyl)triethylphosphonium 1,2,3-triazolide",CCOC[P+](CC)(CC)CC.[c-]1c[nH]nn1,306
1-ethyl-3-methylimidazolium diethylphosphate,CCOP(=O)([O-])OCC.CCn1cc[n+](C)c1,292.15
"N,N,N-triethyl-N-(methoxycarbonylmethyl)ammonium ethylsulfate",CCOS(=O)(=O)[O-].CC[N+](CC)(CC)CC(=O)OC,243.15
1-ethyl-1-methylpyrrolidinium ethyl sulfate,CCOS(=O)(=O)[O-].CC[N+]1(C)CCCC1,308.035
1-ethyl-3-methylimidazolium ethyl sulfate,CCOS(=O)(=O)[O-].CCn1cc[n+](C)c1,225.925
3-[2-(4-ethoxylphenyl)-2-oxoethyl]-1-methylimidazolium bromide,CCOc1ccc(C(=O)C[n+]2ccn(C)c2)cc1.[Br-],417.65
3-[2-(4-ethoxylphenyl)-2-oxoethyl]-1-methylimidazolium chloride,CCOc1ccc(C(=O)C[n+]2ccn(C)c2)cc1.[Cl-],417.65
3-[2-(3-ethoxylphenyl)-2-oxoethyl]-1-methylimidazolium bromide,CCOc1cccc(C(=O)C[n+]2ccn(C)c2)c1.[Br-],410.65
3-[2-(3-ethoxylphenyl)-2-oxoethyl]-1-methylimidazolium chloride,CCOc1cccc(C(=O)C[n+]2ccn(C)c2)c1.[Cl-],410.65
"1-methyl-3-[2,6-(S)-dimethylocten-2-yl]imidazolium hexafluorophosphate",CC[C@H](C)CC=CC(C)(C)[n+]1ccn(C)c1.F[P-](F)(F)(F)(F)F,403.15
isoleucinium nitrate,CC[C@H](C)[C@H]([NH3+])C(=O)O.O=[N+]([O-])[O-],378.15
methyl-ethyl-di(i-propyl)ammonium bis((trifluoromethyl)sulfonyl)imide,CC[N+](C)(C(C)C)C(C)C.O=S(=O)([N-]S(=O)(=O)C(F)(F)F)C(F)(F)F,413.15
trimethylethylammonium bis((trifluoromethyl)sulfonyl)imide,CC[N+](C)(C)C.O=S(=O)([N-]S(=O)(=O)C(F)(F)F)C(F)(F)F,380.15
"N-adamantyl-N,N-dimethyl-N-ethylammonium bis(trifluoromethylsulfonyl)imide",CC[N+](C)(C)C12CC3CC(CC(C3)C1)C2.O=S(=O)([N-]S(=O)(=O)C(F)(F)F)C(F)(F)F,390.9
Dimethyl-diethylammonium Hydrogen maleate,CC[N+](C)(C)CC.O=C([O-])/C=C\C(=O)O,277
dimethyl-diethylammonium bis((trifluoromethyl)sulfonyl)imide,CC[N+](C)(C)CC.O=S(=O)([N-]S(=O)(=O)C(F)(F)F)C(F)(F)F,369.15
ethylhydroxyethyldimethylammonium methylsulfonate,CC[N+](C)(C)CCO.CS(=O)(=O)[O-],251.575
ethylhydroxyethyldimethylammonium tetrafluoroborate,CC[N+](C)(C)CCO.F[B-](F)(F)F,370.15
"N-ethyl-2-methoxy-N,N-dimethylethan-1-aminium trifluoro(perfluorobutyl)borate",CC[N+](C)(C)CCOC.F[B-](F)(F)C(F)(F)C(F)(F)C(F)(F)C(F)(F)F,245.2
"N-ethyl-2-methoxy-N,N-dimethylethan-1-aminium trifluoro(perfluoroethyl)borate",CC[N+](C)(C)CCOC.F[B-](F)(F)C(F)(F)C(F)(F)F,240.2
"2-methoxy-N-ethyl-N,N-dimethylethan-1-aminium trifluoro(trifluoromethyl)borate",CC[N+](C)(C)CCOC.F[B-](F)(F)C(F)(F)F,281.1
"N-ethyl-2-methoxy-N,N-dimethylethan-1-aminium tetrafluoroborate",CC[N+](C)(C)CCOC.F[B-](F)(F)F,277.1
"Ethyl(8-diisopropylamino-3,6-dioxaoctyl)dimethylammonium bis((trifluoromethyl)sulfonyl)imide",CC[N+](C)(C)CCOCCOCCN(C(C)C)C(C)C.O=S(=O)([N-]S(=O)(=O)C(F)(F)F)C(F)(F)F,191.15
"N,N,N',N'-tetramethyl-N,N'-diethyl-ethylenediammonium di[bis(trifluoromethanesulfonyl)
amide]",CC[N+](C)(C)CC[N+](C)(C)CC.O=S(=O)([N-]S(=O)(=O)C(F)(F)F)C(F)(F)F.O=S(=O)([N-]S(=O)(=O)C(F)(F)F)C(F)(F)F,460.15
"N,N-diethyl-N-methyl-N-(methoxycarbonylmethyl)ammonium methylsulfate",CC[N+](C)(CC)CC(=O)OC.COS(=O)(=O)[O-],242.15
"N,N-diethyl-N-methylethanaminium methyl sulfate",CC[N+](C)(CC)CC.COS(=O)(=O)[O-],302.075
triethyl-methylammonium bis((trifluoromethyl)sulfonyl)imide,CC[N+](C)(CC)CC.O=S(=O)([N-]S(=O)(=O)C(F)(F)F)C(F)(F)F,402.15
diethylhydroxyethylmethylammonium methylsulfonate,CC[N+](C)(CC)CCO.CS(=O)(=O)[O-],198.15
"N,N-diethyl-2-methoxy-N-methylethan-1-aminium trifluoro(trifluoromethyl)borate",CC[N+](C)(CC)CCOC.F[B-](F)(F)C(F)(F)F,251.175
"N,N-diethyl-2-methoxy-N-methylethan-1-aminium tetrafluoroborate",CC[N+](C)(CC)CCOC.F[B-](F)(F)F,281.375
"N,N-diethyl-N-methyl-N-(2-methoxyethyl)ammonium bis(heptafluoropropylsulfonyl)amide",CC[N+](C)(CC)CCOC.O=S(=O)([N-]S(=O)(=O)C(F)(F)C(F)(F)C(F)(F)F)C(F)(F)C(F)(F)C(F)(F)F,291.15
"N-(cyanomethyl)-N,N,N-triethylammonium bromide",CC[N+](CC)(CC)CC#N.[Br-],465
tetraethylammonium tetrafluoroborate,CC[N+](CC)(CC)CC.F[B-](F)(F)F,344.9875
tetraethylammonium hexafluorophosphate,CC[N+](CC)(CC)CC.F[P-](F)(F)(F)(F)F,344.9125
"tetraethylammonium 4,5-dicyanoimidazolate",CC[N+](CC)(CC)CC.N#Cc1nc[n-]c1C#N,391.15
"tetraethylammonium 4-nitro-1,2,3-triazolate",CC[N+](CC)(CC)CC.O=C([O-])C1([N+](=O)[O-])C=NN=N1,355.15
"tetraethylammonium 3,5-dinitro-1,2,4-triazolate",CC[N+](CC)(CC)CC.O=C([O-])C1([N+](=O)[O-])N=NC([N+](=O)[O-])=N1,387.15
tetraethylammonium 5-nitro-benzotriazolate,CC[N+](CC)(CC)CC.O=C([O-])c1c([N+](=O)[O-])ccc2[nH]nnc12,337.15
tetraethylammonium tetrazolate,CC[N+](CC)(CC)CC.O=C([O-])c1nnn[nH]1,387.15
tetraethylammonium tris[(trifluoromethyl)sulfonyl]methide,CC[N+](CC)(CC)CC.O=S(=O)([C-](S(=O)(=O)C(F)(F)F)S(=O)(=O)C(F)(F)F)C(F)(F)F,319.1
tetraethyammonium bis[(pentafluoroethyl)sulfonyl]imide,CC[N+](CC)(CC)CC.O=S(=O)([N-]S(=O)(=O)C(F)(F)C(F)(F)F)C(F)(F)C(F)(F)F,356.35
tetraethylammonium bis((trifluoromethyl)sulfonyl)imide,CC[N+](CC)(CC)CC.O=S(=O)([N-]S(=O)(=O)C(F)(F)F)C(F)(F)F,379.205
"tetraethylammonium 2,2,3,3,4,4,5,5-octafluoropentyl sulfate",CC[N+](CC)(CC)CC.O=S(=O)([O-])OCC(F)(F)C(F)(F)C(F)(F)C(F)F,260.15
"tetraethylammonium 2,2,3,3-tetrafluoropropyl sulfate",CC[N+](CC)(CC)CC.O=S(=O)([O-])OCC(F)(F)C(F)F,264.15
"tetraethylammonium 2,2,2-trifluoroethyl sulfate",CC[N+](CC)(CC)CC.O=S(=O)([O-])OCC(F)(F)F,278.15
tetraethylammonium nitrate,CC[N+](CC)(CC)CC.O=[N+]([O-])[O-],513
"tetraethylammonium 2,4-dinitroimidazolate",CC[N+](CC)(CC)CC.O=[N+]([O-])c1c[n-]c([N+](=O)[O-])n1,359.15
tetraethylammonium 4-nitroimidazolate,CC[N+](CC)(CC)CC.O=[N+]([O-])c1c[n-]cn1,397.15
tetraethylammonium 5-nitrobenzimidazolate,CC[N+](CC)(CC)CC.O=[N+]([O-])c1ccc2nc[n-]c2c1,374.15
"tetraethylammonium 4,5-dinitroimidazolate",CC[N+](CC)(CC)CC.O=[N+]([O-])c1nc[n-]c1[N+](=O)[O-],357.15
tetraethylammonium chloride,CC[N+](CC)(CC)CC.[Cl-],457.125
3-triethylammoniopropanesulfonic acid hydrosulfate,CC[N+](CC)(CC)CCCS(=O)(=O)O.O=S(=O)([O-])O,264.15
triethylhydroxylethylammonium methylsulfonate,CC[N+](CC)(CC)CCO.CS(=O)(=O)[O-],343.15
"N,N,N-triethyl-2-methoxyethan-1-aminium trifluoro(perfluorobutyl)borate",CC[N+](CC)(CC)CCOC.F[B-](F)(F)C(F)(F)C(F)(F)C(F)(F)C(F)(F)F,284.125
"N,N,N-triethyl-2-methoxyethan-1-aminium trifluoro(perfluoropropyl)borate",CC[N+](CC)(CC)CCOC.F[B-](F)(F)C(F)(F)C(F)(F)C(F)(F)F,279.125
"N,N,N-triethyl-2-methoxyethan-1-aminium trifluoro(perfluoroethyl)borate",CC[N+](CC)(CC)CCOC.F[B-](F)(F)C(F)(F)C(F)(F)F,276.125
"N,N,N-triethyl-2-methoxyethan-1-aminium trifluoro(trifluoromethyl)borate",CC[N+](CC)(CC)CCOC.F[B-](F)(F)C(F)(F)F,283.125
"N,N,N-triethyl-2-methoxyethan-1-aminium tetrafluoroborate",CC[N+](CC)(CC)CCOC.F[B-](F)(F)F,329.125
"N,N,N-triethyl-2-methoxyethan-1-aminium bis((trifluoromethyl)sulfonyl)amide",CC[N+](CC)(CC)CCOC.O=S(=O)([N-]S(=O)(=O)C(F)(F)F)C(F)(F)F,275.625
triethyl(methoxymethyl)ammonium bis((trifluoromethyl)sulfonyl)imide,CC[N+](CC)(CC)COC.O=S(=O)([N-]S(=O)(=O)C(F)(F)F)C(F)(F)F,270.15
"N-benzyl-N,N,N-triethylammonium dicyanoamide",CC[N+](CC)(CC)Cc1ccccc1.N#C[N-]C#N,356.57
"N-benzyl-N,N,N-triethylammonium thiocyanate",CC[N+](CC)(CC)Cc1ccccc1.N#C[S-],360.97
"N-benzyl-N,N,N-triethylammonium bis((trifluoromethyl)sulfonyl)imide",CC[N+](CC)(CC)Cc1ccccc1.O=S(=O)([N-]S(=O)(=O)C(F)(F)F)C(F)(F)F,314.15
"N-benzyl-N,N,N-triethylammonium trifluoromethanesulfonate",CC[N+](CC)(CC)Cc1ccccc1.O=S(=O)([O-])C(F)(F)F,382.52