Name,SMILES,Melting_Point_Average(K)
4-dodecyl-1-methylpyridinium chloride,CCCCCCCCCCCCc1cc[n+](C)cc1.[Cl-],323.9
4-dodecyl-1-methylpyridinium iodide,CCCCCCCCCCCCc1cc[n+](C)cc1.[I-],386.15
4-dodecyl-1-methylpyridinium perchlorate,CCCCCCCCCCCCc1cc[n+](C)cc1.[O-][Cl+3]([O-])([O-])[O-],365.9
"1-dodecyl-4-methyl-1H-1,2,4-triazol-4-ium bis((trifluoromethyl)sulfonyl)amide",CCCCCCCCCCCCn1c[n+](C)cn1.O=S(=O)([N-]S(=O)(=O)C(F)(F)F)C(F)(F)F,292.9
"1-dodecyl-3-methylimidazolium tetrakis[3,5-bis(trifluoromethyl)phenyl]borate",CCCCCCCCCCCCn1cc[n+](C)c1.FC(F)(F)c1cc([B-](c2cc(C(F)(F)F)cc(C(F)(F)F)c2)(c2cc(C(F)(F)F)cc(C(F)(F)F)c2)c2cc(C(F)(F)F)cc(C(F)(F)F)c2)cc(C(F)(F)F)c1,345.15
1-dodecyl-3-methylimidazolium tetrafluoroborate,CCCCCCCCCCCCn1cc[n+](C)c1.F[B-](F)(F)F,304.275
1-dodecyl-3-methylimidazolium hexafluorophosphate,CCCCCCCCCCCCn1cc[n+](C)c1.F[P-](F)(F)(F)(F)F,331.4375
1-dodecyl-3-methyl-1H-imidazolium bis(trifluoromethylsulfonyl)amide,CCCCCCCCCCCCn1cc[n+](C)c1.O=S(=O)([N-]S(=O)(=O)C(F)(F)F)C(F)(F)F,292.1083333
1-dodecyl-3-methylimidazolium trifluoromethanesulfonate,CCCCCCCCCCCCn1cc[n+](C)c1.O=S(=O)([O-])C(F)(F)F,312.45
1-dodecyl-3-methylimidazolium bromide,CCCCCCCCCCCCn1cc[n+](C)c1.[Br-],289.375
1-dodecyl-3-methylimidazolium chloride,CCCCCCCCCCCCn1cc[n+](C)c1.[Cl-],344.341
"1,3-didodecylimidazolium bromotrichloroferrate(III)",CCCCCCCCCCCCn1cc[n+](CCCCCCCCCCCC)c1.Cl[Fe-](Cl)(Cl)Br,298.2
"1-dodecyl-3-[(3R)-3,7-dimethyloct-6-enyl]-1H-imidazolium tetrafluoroborate",CCCCCCCCCCCCn1cc[n+](CC[C@H](C)CCC=C(C)C)c1.F[B-](F)(F)F,280.15
1-dodecylimidazolium  L-lactate,CCCCCCCCCCCCn1cc[nH+]c1.C[C@H](O)C(=O)[O-],298.15
(2-hydroxyethyl)-dimethylundecyloxymethylammonium dicyanamide,CCCCCCCCCCCOC[N+](C)(C)CCO.N#C[N-]C#N,283.5
1-((undecyloxy)methyl)pyridinium N-cyclohexylsulfamate,CCCCCCCCCCCOC[n+]1ccccc1.O=S(=O)([O-])NC1CCCCC1,297.35
1-(1-undecoxymethyl)-3-phenylimidazolium hexafluorophosphate,CCCCCCCCCCCOCn1cc[n+](-c2ccccc2)c1.F[P-](F)(F)(F)(F)F,303.15
1-(1-undecoxymethyl)-3-methylimidazolium tetrafluoroborate,CCCCCCCCCCCOCn1cc[n+](C)c1.F[B-](F)(F)F,334
1-(1-undecoxymethyl)-3-methylimidazolium hexafluorophosphate,CCCCCCCCCCCOCn1cc[n+](C)c1.F[P-](F)(F)(F)(F)F,325.5
1-(1-undecoxymethyl)-3-(1-butoxymethyl)imidazolium tetrafluoroborate,CCCCCCCCCCCOCn1cc[n+](COCCCC)c1.F[B-](F)(F)F,295.15
1-(1-undecoxymethyl)-3-(1-butoxymethyl)imidazolium hexafluorophosphate,CCCCCCCCCCCOCn1cc[n+](COCCCC)c1.F[P-](F)(F)(F)(F)F,333.15
"1,3-diundecyloxymethylimidazolium tetrafluoroborate",CCCCCCCCCCCOCn1cc[n+](COCCCCCCCCCCC)c1.F[B-](F)(F)F,343.15
"1,3-diundecyloxymethylimidazolium hexafluorophosphate",CCCCCCCCCCCOCn1cc[n+](COCCCCCCCCCCC)c1.F[P-](F)(F)(F)(F)F,376.15
"1,3-diundecyloxymethylimidazolium bis((trifluoromethyl)sulfonyl)imide",CCCCCCCCCCCOCn1cc[n+](COCCCCCCCCCCC)c1.O=S(=O)([N-]S(=O)(=O)C(F)(F)F)C(F)(F)F,318.15
"1,3-diundecyloxymethylimidazolium chloride",CCCCCCCCCCCOCn1cc[n+](COCCCCCCCCCCC)c1.[Cl-],377.15
1-undecyloxymethylimidazolium  L-lactate,CCCCCCCCCCCOCn1cc[nH+]c1.C[C@H](O)C(=O)[O-],298.15
1-benzyl-2-n-undecyl-3-methylimidazolium bromide,CCCCCCCCCCCc1n(Cc2ccccc2)cc[n+]1C.[Br-],459.65
1-benzyl-2-n-undecyl-3-amylimidazolium bromide,CCCCCCCCCCCc1n(Cc2ccccc2)cc[n+]1CCCCC.[Br-],389.65
1-undecyl-3-methylimidazolium tetrafluoroborate,CCCCCCCCCCCn1cc[n+](C)c1.F[B-](F)(F)F,294.55
1-(1-decoxymethyl)-3-phenylimidazolium tetrafluoroborate,CCCCCCCCCCOCn1cc[n+](-c2ccccc2)c1.F[B-](F)(F)F,311.15
1-(1-decoxymethyl)-3-methylimidazolium tetrafluoroborate,CCCCCCCCCCOCn1cc[n+](C)c1.F[B-](F)(F)F,329.5
1-(1-decoxymethyl)-3-methylimidazolium hexafluorophosphate,CCCCCCCCCCOCn1cc[n+](C)c1.F[P-](F)(F)(F)(F)F,319.5
1-(1-decoxymethyl)-3-(1-butoxymethyl)imidazolium tetrafluoroborate,CCCCCCCCCCOCn1cc[n+](COCCCC)c1.F[B-](F)(F)F,289.15
1-(1-decoxymethyl)-3-(1-butoxymethyl)imidazolium hexafluorophosphate,CCCCCCCCCCOCn1cc[n+](COCCCC)c1.F[P-](F)(F)(F)(F)F,327.15
"1,3-didecyloxymethylimidazolium tetrafluoroborate",CCCCCCCCCCOCn1cc[n+](COCCCCCCCCCC)c1.F[B-](F)(F)F,340.15
"1,3-didecyloxymethylimidazolium hexafluorophosphate",CCCCCCCCCCOCn1cc[n+](COCCCCCCCCCC)c1.F[P-](F)(F)(F)(F)F,370.15
"1,3-didecyloxymethylimidazolium bis((trifluoromethyl)sulfonyl)imide",CCCCCCCCCCOCn1cc[n+](COCCCCCCCCCC)c1.O=S(=O)([N-]S(=O)(=O)C(F)(F)F)C(F)(F)F,304.15
"1,3-didecyloxymethylimidazolium chloride",CCCCCCCCCCOCn1cc[n+](COCCCCCCCCCC)c1.[Cl-],372.15
1-decyloxymethylimidazolium  L-lactate,CCCCCCCCCCOCn1cc[nH+]c1.C[C@H](O)C(=O)[O-],298.15
"N-adamantyl-N,N-dimethyl-N-decylammonium bis(fluorosulfonyl)amide",CCCCCCCCCC[N+](C)(C)C12CC3CC(CC(C3)C1)C2.O=S(=O)(F)[N-]S(=O)(=O)F,365.9
"N-adamantyl-N,N-dimethyl-N-decylammonium bis(trifluoromethylsulfonyl)imide",CCCCCCCCCC[N+](C)(C)C12CC3CC(CC(C3)C1)C2.O=S(=O)([N-]S(=O)(=O)C(F)(F)F)C(F)(F)F,324.4
"N-adamantyl-N,N-dimethyl-N-decylammonium trifluoromethanesulfonate",CCCCCCCCCC[N+](C)(C)C12CC3CC(CC(C3)C1)C2.O=S(=O)([O-])C(F)(F)F,377.4
didecyldimethylammonium tetrafluoroborate,CCCCCCCCCC[N+](C)(C)CCCCCCCCCC.F[B-](F)(F)F,300.65
didecyldimethylammonium nitrite,CCCCCCCCCC[N+](C)(C)CCCCCCCCCC.O=N[O-],270.75
"N-decyl-N,N-dimethyldecan-1-aminium N-cyclohexylsulfamate",CCCCCCCCCC[N+](C)(C)CCCCCCCCCC.O=S(=O)([O-])NC1CCCCC1,323.55
Didecyldimethylammonium nitrate,CCCCCCCCCC[N+](C)(C)CCCCCCCCCC.O=[N+]([O-])[O-],298.375
didecyldiethylammonium bromide,CCCCCCCCCC[N+](CC)(CC)CCCCCCCCCC.[Br-],318.1
n-methyl-n-decyl-pyrrolidinium bis((trifluoromethyl)sulfonyl)imide,CCCCCCCCCC[N+]1(C)CCCC1.O=S(=O)([N-]S(=O)(=O)C(F)(F)F)C(F)(F)F,283.7
N-decyl-N-methylmorpholinium trifluoromethanesulfonate,CCCCCCCCCC[N+]1(C)CCOCC1.O=S(=O)([O-])C(F)(F)F,349.2
N-decylethylenediaminium bis((trifluoromethyl)sulfonyl)imide,CCCCCCCCCC[NH2+]CC[NH3+].O=S(=O)([N-]S(=O)(=O)C(F)(F)F)C(F)(F)F.O=S(=O)([N-]S(=O)(=O)C(F)(F)F)C(F)(F)F,291.35
decyltri(tert-butyl)phosphonium tetrafluoroborate,CCCCCCCCCC[P+](C(C)(C)C)(C(C)(C)C)C(C)(C)C.F[B-](F)(F)F,349
decyltriethylphosphonium 4-nitropyrazolide,CCCCCCCCCC[P+](CC)(CC)CC.O=[N+]([O-])c1cn[n-]c1,284
decyltrihexylphosphonium chloride,CCCCCCCCCC[P+](CCCCCC)(CCCCCC)CCCCCC.[Cl-],298.15
1-decyl-3-methyl-2-(thiazol-4-yl)benzimidazolium tetrafluoroborate,CCCCCCCCCC[n+]1c(-c2cscn2)n(C)c2ccccc21.F[B-](F)(F)F,341.1
1-decyl-3-methyl-2-(thiazol-4-yl)benzimidazolium trifluoromethanesulfonate,CCCCCCCCCC[n+]1c(-c2cscn2)n(C)c2ccccc21.O=S(=O)([O-])C(F)(F)F,335.1
1-decyl-3-methyl-2-(thiazol-4-yl)benzimidazolium nitrate,CCCCCCCCCC[n+]1c(-c2cscn2)n(C)c2ccccc21.O=[N+]([O-])[O-],342.1
3-decyl-1H-imidazol-3-ium bis((trifluoromethyl)sulfonyl)amide,CCCCCCCCCC[n+]1cc[nH]c1.O=S(=O)([N-]S(=O)(=O)C(F)(F)F)C(F)(F)F,274.1
1-decyl-3-methylpyridinium chloride,CCCCCCCCCC[n+]1cccc(C)c1.[Cl-],346.175
1-decylpyridinium bis(trifluoromethylsulfonyl)imide,CCCCCCCCCC[n+]1ccccc1.O=S(=O)([N-]S(=O)(=O)C(F)(F)F)C(F)(F)F,274
3-decyl-1-methylimidazolium bromotrichloroferrate(III),CCCCCCCCCC[n+]1ccn(C)c1.Cl[Fe-](Cl)(Cl)Br,263.8
1-benzyl-2-methyl-3-n-decylimidazolium bromide,CCCCCCCCCC[n+]1ccn(Cc2ccccc2)c1C.[Br-],360.65
"1-decyl-4-(1-fluoroethyl)-1,2,4-triazolium trifluoromethanesulfonate",CCCCCCCCCC[n+]1cn(C(C)F)cn1.O=S(=O)([O-])C(F)(F)F,319.15
"1-decyl-4-methyl-1H-1,2,4-triazol-4-ium bis((trifluoromethyl)sulfonyl)amide",CCCCCCCCCCn1c[n+](C)cn1.O=S(=O)([N-]S(=O)(=O)C(F)(F)F)C(F)(F)F,276.1
1-decyl-3-methylimidazolium tosylate,CCCCCCCCCCn1cc[n+](C)c1.Cc1ccc(S(=O)(=O)[O-])cc1,352.14
"1-decyl-3-methylimidazolium tetrakis[3,5-bis(trifluoromethyl)phenyl]borate",CCCCCCCCCCn1cc[n+](C)c1.FC(F)(F)c1cc([B-](c2cc(C(F)(F)F)cc(C(F)(F)F)c2)(c2cc(C(F)(F)F)cc(C(F)(F)F)c2)c2cc(C(F)(F)F)cc(C(F)(F)F)c2)cc(C(F)(F)F)c1,358.15
1-decyl-3-methylimidazolium tetrafluoroborate,CCCCCCCCCCn1cc[n+](C)c1.F[B-](F)(F)F,262.2583334
1-decyl-3-methylimidazolium hexafluorophosphate,CCCCCCCCCCn1cc[n+](C)c1.F[P-](F)(F)(F)(F)F,305.975
1-decyl-3-methylimidazolium bis(trifluoromethylsulfonyl)amide,CCCCCCCCCCn1cc[n+](C)c1.O=S(=O)([N-]S(=O)(=O)C(F)(F)F)C(F)(F)F,265.4166666
1-decyl-3-methylimidazolium trifluoromethansulfate,CCCCCCCCCCn1cc[n+](C)c1.O=S(=O)([O-])C(F)(F)F,296.2
1-decyl-3-methylimidazolium bromide,CCCCCCCCCCn1cc[n+](C)c1.[Br-],330.8566666
1-decyl-3-methylimidazolium chloride,CCCCCCCCCCn1cc[n+](C)c1.[Cl-],307.155
"1-decyl-2,3-dimethylimidazolium bis((trifluoromethyl)sulfonyl)imide",CCCCCCCCCCn1cc[n+](C)c1C.O=S(=O)([N-]S(=O)(=O)C(F)(F)F)C(F)(F)F,295.05
"1-decyl-2,3-dimethylimidazolium bromide",CCCCCCCCCCn1cc[n+](C)c1C.[Br-],341.35
"1,3-didecylimidazolium bromotrichloroferrate(III)",CCCCCCCCCCn1cc[n+](CCCCCCCCCC)c1.Cl[Fe-](Cl)(Cl)Br,277.8
"1,3-didecyl-2-methylimidazolium dicyanimide",CCCCCCCCCCn1cc[n+](CCCCCCCCCC)c1C.N#C[N-]C#N,350.8
1-decylimidazolium  L-lactate,CCCCCCCCCCn1cc[nH+]c1.C[C@H](O)C(=O)[O-],298.15
1-((nonyloxy)methyl)pyridinium N-cyclohexylsulfamate,CCCCCCCCCOC[n+]1ccccc1.O=S(=O)([O-])NC1CCCCC1,281.75
1-(1-nonoxymethyl)-3-(1-butoxymethyl)imidazolium hexafluorophosphate,CCCCCCCCCOCn1cc[n+](COCCCC)c1.F[P-](F)(F)(F)(F)F,323.15
"1,3-dinonyloxymethylimidazolium tetrafluoroborate",CCCCCCCCCOCn1cc[n+](COCCCCCCCCC)c1.F[B-](F)(F)F,328.15
"1,3-dinonyloxymethylimidazolium hexafluorophosphate",CCCCCCCCCOCn1cc[n+](COCCCCCCCCC)c1.F[P-](F)(F)(F)(F)F,357.15
"1,3-dinonyloxymethylimidazolium bis((trifluoromethyl)sulfonyl)imide",CCCCCCCCCOCn1cc[n+](COCCCCCCCCC)c1.O=S(=O)([N-]S(=O)(=O)C(F)(F)F)C(F)(F)F,299.15
"1,3-dinonyloxymethylimidazolium chloride",CCCCCCCCCOCn1cc[n+](COCCCCCCCCC)c1.[Cl-],367.15
1-nonyloxymethylimidazolium  L-lactate,CCCCCCCCCOCn1cc[nH+]c1.C[C@H](O)C(=O)[O-],298.15
triethylnonylphosphonium 4-nitropyrazolide,CCCCCCCCC[P+](CC)(CC)CC.O=[N+]([O-])c1cn[n-]c1,289
1-nonyl-3-methylpyridinium chloride,CCCCCCCCC[n+]1cccc(C)c1.[Cl-],337.1
1-methyl-2-n-nonyl-3-benzyl imidazolium bromide,CCCCCCCCCc1n(C)cc[n+]1Cc1ccccc1.[Br-],467.15
1-nonyl-3-methylimidazolium hexafluorophosphate,CCCCCCCCCn1cc[n+](C)c1.F[P-](F)(F)(F)(F)F,287.125
1-nonylimidazolium  L-lactate,CCCCCCCCCn1cc[nH+]c1.C[C@H](O)C(=O)[O-],298.15
"1,3-dioctyloxymethylimidazolium tetrafluoroborate",CCCCCCCCOCn1cc[n+](COCCCCCCCC)c1.F[B-](F)(F)F,326.15
"1,3-dioctyloxymethylimidazolium hexafluorophosphate",CCCCCCCCOCn1cc[n+](COCCCCCCCC)c1.F[P-](F)(F)(F)(F)F,350.15
"1,3-dioctyloxymethylimidazolium chloride",CCCCCCCCOCn1cc[n+](COCCCCCCCC)c1.[Cl-],366.15
1-octyloxymethylimidazolium  L-lactate,CCCCCCCCOCn1cc[nH+]c1.C[C@H](O)C(=O)[O-],298.15
Trimethyl-butylammonium Octylsulfate,CCCCCCCCOS(=O)(=O)[O-].CCCC[N+](C)(C)C,484
1-butyl-3-methylimidazolium octyl sulfate,CCCCCCCCOS(=O)(=O)[O-].CCCCn1cc[n+](C)c1,307.3
Ethyl(2-hydroxyethyl)dimethylammonium Octylsulfate,CCCCCCCCOS(=O)(=O)[O-].CC[N+](C)(C)CCO,320
1-ethyl-3-methylimidazolium octyl sulfate,CCCCCCCCOS(=O)(=O)[O-].CCn1cc[n+](C)c1,283
2-hydroxyethyltrimethylammonium Octylsulfate,CCCCCCCCOS(=O)(=O)[O-].C[N+](C)(C)CCO,390
trimethyloctylammonium bis[(trifluoromethyl)sulfonyl]imide,CCCCCCCC[N+](C)(C)C.O=S(=O)([N-]S(=O)(=O)C(F)(F)F)C(F)(F)F,279.125
"N-adamantyl-N,N-dimethyl-N-octylammonium bis(fluorosulfonyl)amide",CCCCCCCC[N+](C)(C)C12CC3CC(CC(C3)C1)C2.O=S(=O)(F)[N-]S(=O)(=O)F,349.4
"N-adamantyl-N,N-dimethyl-N-octylammonium bis(trifluoromethylsulfonyl)imide",CCCCCCCC[N+](C)(C)C12CC3CC(CC(C3)C1)C2.O=S(=O)([N-]S(=O)(=O)C(F)(F)F)C(F)(F)F,311.9
"N,N,N',N'-tetramethyl-N,N'-dioctyl-ethylenediammonium di[bis(trifluoromethanesulfonyl)
amide]",CCCCCCCC[N+](C)(C)CC[N+](C)(C)CCCCCCCC.O=S(=O)([N-]S(=O)(=O)C(F)(F)F)C(F)(F)F.O=S(=O)([N-]S(=O)(=O)C(F)(F)F)C(F)(F)F,353.15
trioctylmethylammonium tosylate,CCCCCCCC[N+](C)(CCCCCCCC)CCCCCCCC.Cc1ccc(S(=O)(=O)[O-])cc1,349.115
"N, N, N-trioctyl-N-methylammonium tetrakis[3,5-bis(trifluoromethyl)phenyl]borate",CCCCCCCC[N+](C)(CCCCCCCC)CCCCCCCC.FC(F)(F)c1cc([B-](c2cc(C(F)(F)F)cc(C(F)(F)F)c2)(c2cc(C(F)(F)F)cc(C(F)(F)F)c2)c2cc(C(F)(F)F)cc(C(F)(F)F)c2)cc(C(F)(F)F)c1,309.15
"N, N, N-trioctyl-N-methylammonium tetrafluoroborate",CCCCCCCC[N+](C)(CCCCCCCC)CCCCCCCC.F[B-](F)(F)F,333.15
"N, N, N-trioctyl-N-methylammonium hexafluorophosphate",CCCCCCCC[N+](C)(CCCCCCCC)CCCCCCCC.F[P-](F)(F)(F)(F)F,324.15
methyltrioctylammonium trifluoroacetate,CCCCCCCC[N+](C)(CCCCCCCC)CCCCCCCC.O=C([O-])C(F)(F)F,285.62
"N, N, N-trioctyl-N-methylammonium bicarbonate",CCCCCCCC[N+](C)(CCCCCCCC)CCCCCCCC.O=C([O-])O,267.15
"N, N, N-trioctyl-N-methylammonium formate",CCCCCCCC[N+](C)(CCCCCCCC)CCCCCCCC.O=C[O-],274.15
"N, N, N-trioctyl-N-methylammonium dihydrogen phosphate",CCCCCCCC[N+](C)(CCCCCCCC)CCCCCCCC.O=P([O-])(O)O,251.15
"N, N, N-trioctyl-N-methylammonium bis((trifluoromethyl)sulfonyl)imide",CCCCCCCC[N+](C)(CCCCCCCC)CCCCCCCC.O=S(=O)([N-]S(=O)(=O)C(F)(F)F)C(F)(F)F,216.3433333
"N, N, N-trioctyl-N-methylammonium hydrosulfate",CCCCCCCC[N+](C)(CCCCCCCC)CCCCCCCC.O=S(=O)([O-])O,254.15
"N, N, N-trioctyl-N-methylammonium 2,2,3,3,4,4,5,5-octafluoropentyl sulfate",CCCCCCCC[N+](C)(CCCCCCCC)CCCCCCCC.O=S(=O)([O-])OCC(F)(F)C(F)(F)C(F)(F)C(F)F,271.15
"N, N, N-trioctyl-N-methylammonium 2,2,3,3-tetrafluoropropyl sulfate",CCCCCCCC[N+](C)(CCCCCCCC)CCCCCCCC.O=S(=O)([O-])OCC(F)(F)C(F)F,268.15
"N, N, N-trioctyl-N-methylammonium 2,2,2-trifluoroethyl sulfate",CCCCCCCC[N+](C)(CCCCCCCC)CCCCCCCC.O=S(=O)([O-])OCC(F)(F)F,277.15
"N, N, N-trioctyl-N-methylammonium nitrate",CCCCCCCC[N+](C)(CCCCCCCC)CCCCCCCC.O=[N+]([O-])[O-],279.15
"N,N,N-triethyl-N-octylammonium tetrafluoroborate",CCCCCCCC[N+](CC)(CC)CC.F[B-](F)(F)F,374.55
"N,N,N-triethyl-N-octylammonium hexafluorophosphate",CCCCCCCC[N+](CC)(CC)CC.F[P-](F)(F)(F)(F)F,361.45
"N,N,N-triethyloctan-1-aminium hexafluorostibate",CCCCCCCC[N+](CC)(CC)CC.F[Sb-](F)(F)(F)(F)F,346.75
triethyloctylammonium bis[(trifluoromethyl)sulfonyl]imide,CCCCCCCC[N+](CC)(CC)CC.O=S(=O)([N-]S(=O)(=O)C(F)(F)F)C(F)(F)F,271.125
"ammonium, trioctylpropyl-, bromide",CCCCCCCC[N+](CCC)(CCCCCCCC)CCCCCCCC.[Br-],349.15
tetraoctyl ammonium bis((trifluoromethyl)sulfonyl)imide,CCCCCCCC[N+](CCCCCCCC)(CCCCCCCC)CCCCCCCC.O=S(=O)([N-]S(=O)(=O)C(F)(F)F)C(F)(F)F,304.35
1-methyl-1-octylpiperidinium trifluoromethanesulfonate,CCCCCCCC[N+]1(C)CCCCC1.O=S(=O)([O-])C(F)(F)F,320.15
N-butyl-N-octylpyrrolidinium bromide,CCCCCCCC[N+]1(CCCC)CCCC1.[Br-],373
1-octyl-4-aza-1-azonia-bicyclo[2.2.2]octane bis((trifluoromethyl)sulfonyl)imide,CCCCCCCC[N+]12CCN(CC1)CC2.O=S(=O)([N-]S(=O)(=O)C(F)(F)F)C(F)(F)F,299.15
trioctylammonium bis(trifluoromethanesulfonyl)amide,CCCCCCCC[NH+](CCCCCCCC)CCCCCCCC.O=S(=O)([N-]S(=O)(=O)C(F)(F)F)C(F)(F)F,276.85
N-octylethylenediammonium trifluoroacetate,CCCCCCCC[NH2+]CC[NH3+].O=C([O-])C(F)(F)F.O=C([O-])C(F)(F)F,302.55
N-octylethylenediaminium bis((trifluoromethyl)sulfonyl)imide,CCCCCCCC[NH2+]CC[NH3+].O=S(=O)([N-]S(=O)(=O)C(F)(F)F)C(F)(F)F.O=S(=O)([N-]S(=O)(=O)C(F)(F)F)C(F)(F)F,291.15
N-octylethylenediammonium trifluoromethanesulfonate,CCCCCCCC[NH2+]CC[NH3+].O=S(=O)([O-])C(F)(F)F.O=S(=O)([O-])C(F)(F)F,325.95
Trioctylmethylphosphonium chloride,CCCCCCCC[P+](C)(CCCCCCCC)CCCCCCCC.[Cl-],362.45
triethyloctylphosphonium bis((trifluoromethyl)sulfonyl)imide,CCCCCCCC[P+](CC)(CC)CC.O=S(=O)([N-]S(=O)(=O)C(F)(F)F)C(F)(F)F,223.15
triethyloctylphosphonium 4-nitroimidazolide,CCCCCCCC[P+](CC)(CC)CC.O=[N+]([O-])c1c[n-]cn1,245
triethyloctylphosphonium 4-nitropyrazolide,CCCCCCCC[P+](CC)(CC)CC.O=[N+]([O-])c1cn[n-]c1,278
"triethyloctylphosphonium 1,2,3-triazolide",CCCCCCCC[P+](CC)(CC)CC.[c-]1c[nH]nn1,339
Trioctylethylphosphonium chloride,CCCCCCCC[P+](CC)(CCCCCCCC)CCCCCCCC.[Cl-],339.35
Trioctylpropylphosphonium chloride,CCCCCCCC[P+](CCC)(CCCCCCCC)CCCCCCCC.[Cl-],301.75
tributyloctylphosphonium tetrafluoroborate,CCCCCCCC[P+](CCCC)(CCCC)CCCC.F[B-](F)(F)F,223.15
octyltrihexylphosphonium chloride,CCCCCCCC[P+](CCCCCC)(CCCCCC)CCCCCC.[Cl-],298.15
"heptadecafluorodecyltrioctylphosphonium tetrakis[3,5-bis-
(trifluoromethyl)phenyl]borate",CCCCCCCC[P+](CCCCCCCC)(CCCCCCCC)C(F)(F)C(F)(F)C(F)(F)C(F)(F)C(F)(F)C(F)(F)C(F)(F)CCC(F)(F)F.FC(F)(F)c1cc([B-](c2cc(C(F)(F)F)cc(C(F)(F)F)c2)(c2cc(C(F)(F)F)cc(C(F)(F)F)c2)c2cc(C(F)(F)F)cc(C(F)(F)F)c2)cc(C(F)(F)F)c1,306.15
tetraoctylphosphonium bis((trifluoromethyl)sulfonyl)amide,CCCCCCCC[P+](CCCCCCCC)(CCCCCCCC)CCCCCCCC.O=S(=O)([N-]S(=O)(=O)C(F)(F)F)C(F)(F)F,284.3
3-methyl-1-octyl-2-(thiazol-4-yl)benzimidazolium tetrafluoroborate,CCCCCCCC[n+]1c(-c2cscn2)n(C)c2ccccc21.F[B-](F)(F)F,343.1
3-methyl-1-octyl-2-(thiazol-4-yl)benzimidazolium trifluoromethanesulfonate,CCCCCCCC[n+]1c(-c2cscn2)n(C)c2ccccc21.O=S(=O)([O-])C(F)(F)F,355.1
3-methyl-1-octyl-2-(thiazol-4-yl)benzimidazolium nitrate,CCCCCCCC[n+]1c(-c2cscn2)n(C)c2ccccc21.O=[N+]([O-])[O-],346.1
"3,5-dimethyl-1-octylpyridinium tetrafluoroborate",CCCCCCCC[n+]1cc(C)cc(C)c1.F[B-](F)(F)F,329.125
"3,5-dimethyl-1-octylpyridinium thiocyanate",CCCCCCCC[n+]1cc(C)cc(C)c1.N#C[S-],235.125
"3,5-dimethyl-1-octylpyridinium 1,1,1-trifluoromethanesulfonate",CCCCCCCC[n+]1cc(C)cc(C)c1.O=S(=O)([O-])C(F)(F)F,349.125
"3,5-dimethyl-1-octylpyridinium iodide",CCCCCCCC[n+]1cc(C)cc(C)c1.[I-],355.1
"2,3,5-trimethyl-1-octylpyridinium thiocyanate",CCCCCCCC[n+]1cc(C)cc(C)c1C.N#C[S-],293.125
5-ethyl-2-methyl-1-octylpyridinium dicyanamide,CCCCCCCC[n+]1cc(CC)ccc1C.N#C[N-]C#N,326.125
5-ethyl-2-methyl-1-octylpyridinium iodide,CCCCCCCC[n+]1cc(CC)ccc1C.[I-],360.1
1-Octyl-4-methylpyridinium Chloride,CCCCCCCC[n+]1ccc(C)cc1.[Cl-],362.5
1-octyl-4-(dimethylamino)pyridinium trifluoromethanesulfonate,CCCCCCCC[n+]1ccc(N(C)C)cc1.O=S(=O)([O-])C(F)(F)F,292.6
1-octyl-3-methylpyridinium chloride,CCCCCCCC[n+]1cccc(C)c1.[Cl-],348.5541667
1-octylquinolinium bis[(trifluoromethyl)sulfonyl]imide,CCCCCCCC[n+]1cccc2ccccc21.O=S(=O)([N-]S(=O)(=O)C(F)(F)F)C(F)(F)F,321.3
N-octyl pyridinium hexafluorophosphate,CCCCCCCC[n+]1ccccc1.F[P-](F)(F)(F)(F)F,338.15
N-octyl pyridinium Chloride,CCCCCCCC[n+]1ccccc1.[Cl-],308.2
1-Octyl-2-methylpyridinium Chloride,CCCCCCCC[n+]1ccccc1C.[Cl-],352.2
1-methyl-3-octylimidazolium bis(trifluoromethylsulfonyl)imide,CCCCCCCC[n+]1ccn(C)c1.O=S(=O)([N-]S(=O)(=O)C(F)(F)F)C(F)(F)F,249.81
1-methyl-3-octylimidazolium perfluorobutanesulfonate,CCCCCCCC[n+]1ccn(C)c1.O=S(=O)([O-])C(F)(F)C(F)(F)C(F)(F)C(F)(F)F,305.1
1-methyl-3-octylimidazolium chloride,CCCCCCCC[n+]1ccn(C)c1.[Cl-],285.41
1-methyl-3-octyl-1H-imidazolium iodide,CCCCCCCC[n+]1ccn(C)c1.[I-],213.2
N-octylbenzothiazolium hexafluorophosphate,CCCCCCCC[n+]1csc2ccccc21.F[P-](F)(F)(F)(F)F,334.22
1-octyl-3-methylimidazolium tosylate,CCCCCCCCn1cc[n+](C)c1.Cc1ccc(S(=O)(=O)[O-])cc1,362.63
"1-octyl-3-methylimidazolium tetrakis[3,5-bis(trifluoromethyl)phenyl]borate",CCCCCCCCn1cc[n+](C)c1.FC(F)(F)c1cc([B-](c2cc(C(F)(F)F)cc(C(F)(F)F)c2)(c2cc(C(F)(F)F)cc(C(F)(F)F)c2)c2cc(C(F)(F)F)cc(C(F)(F)F)c2)cc(C(F)(F)F)c1,348.15
1-octyl-3-methylimidazolium tetrafluoroborate,CCCCCCCCn1cc[n+](C)c1.F[B-](F)(F)F,203.07
1-octyl-3-methylimidazolium hexafluorophosphate,CCCCCCCCn1cc[n+](C)c1.F[P-](F)(F)(F)(F)F,272.2
3-methyl-1-octylimidazolium dicyanamide,CCCCCCCCn1cc[n+](C)c1.N#C[N-]C#N,268.1
1-octyl-3-methylimidazolium bis((trifluoromethyl)sulfonyl)imide,CCCCCCCCn1cc[n+](C)c1.O=S(=O)([N-]S(=O)(=O)C(F)(F)F)C(F)(F)F,246.6325
1-octyl-3-methylimidazolium trifluoromethanesulfonate,CCCCCCCCn1cc[n+](C)c1.O=S(=O)([O-])C(F)(F)F,278.1
1-octyl-3-methylimidazolium bromide,CCCCCCCCn1cc[n+](C)c1.[Br-],285.41
1-octyl-3-methylimidazolium chloride,CCCCCCCCn1cc[n+](C)c1.[Cl-],242.715
"1-octyl-2,3-dimethylimidazolium hexafluorophosphate",CCCCCCCCn1cc[n+](C)c1C.F[P-](F)(F)(F)(F)F,226.15
"1-octyl-2,3-dimethylimidazolium trifluoromethanesulfonate",CCCCCCCCn1cc[n+](C)c1C.O=S(=O)([O-])C(F)(F)F,235.15
1-octyl-3-ethylimidazolium tosylate,CCCCCCCCn1cc[n+](CC)c1.Cc1ccc(S(=O)(=O)[O-])cc1,343.15
1-octyl-3-[3-(diethoxyphosphinyl) propyl]-1H-imidazolium tetrafluoroborate,CCCCCCCCn1cc[n+](CCCP(=O)(OCC)OCC)c1.F[B-](F)(F)F,208.65
1-octyl-3-[3-(diethoxyphosphinyl) propyl]-1H-imidazolium hexafluorophosphate,CCCCCCCCn1cc[n+](CCCP(=O)(OCC)OCC)c1.F[P-](F)(F)(F)(F)F,180.65
1-octyl-3-[2-(diethoxyphosphinyl) ethyl]-1H-imidazolium tetrafluoroborate,CCCCCCCCn1cc[n+](CCP(=O)(OCC)OCC)c1.F[B-](F)(F)F,193.35
1-octyl-3-[2-(diethoxyphosphinyl) ethyl]-1H-imidazolium hexafluorophosphate,CCCCCCCCn1cc[n+](CCP(=O)(OCC)OCC)c1.F[P-](F)(F)(F)(F)F,208.95
1-octylimidazolium  L-lactate,CCCCCCCCn1cc[nH+]c1.C[C@H](O)C(=O)[O-],298.15
1-((heptyloxy)methyl)pyridinium N-cyclohexylsulfamate,CCCCCCCOC[n+]1ccccc1.O=S(=O)([O-])NC1CCCCC1,259.05