Name,SMILES,Melting_Point_Average(K)
1-(1-heptoxymethyl)-3-methylimidazolium hexafluorophosphate,CCCCCCCOCn1cc[n+](C)c1.F[P-](F)(F)(F)(F)F,310.15
1-(1-heptoxymethyl)-3-(1-butoxymethyl)imidazolium hexafluorophosphate,CCCCCCCOCn1cc[n+](COCCCC)c1.F[P-](F)(F)(F)(F)F,329.15
"1,3-diheptyloxymethylimidazolium tetrafluoroborate",CCCCCCCOCn1cc[n+](COCCCCCCC)c1.F[B-](F)(F)F,312.15
"1,3-diheptyloxymethylimidazolium hexafluorophosphate",CCCCCCCOCn1cc[n+](COCCCCCCC)c1.F[P-](F)(F)(F)(F)F,336.15
1-heptyloxymethylimidazolium  L-lactate,CCCCCCCOCn1cc[nH+]c1.C[C@H](O)C(=O)[O-],298.15
"triethylheptylammonium 1,2,3-triazolide",CCCCCCC[N+](CC)(CC)CC.[c-]1c[nH]nn1,356
"N-heptyl-N,N,N-trihexylammonium nitrate",CCCCCCC[N+](CCCCCC)(CCCCCC)CCCCCC.O=[N+]([O-])[O-],345.15
"N,N,N-trihexylheptan-1-aminium bromide",CCCCCCC[N+](CCCCCC)(CCCCCC)CCCCCC.[Br-],381.15
"1-heptanaminium, N,N,N-trihexyl- iodide",CCCCCCC[N+](CCCCCC)(CCCCCC)CCCCCC.[I-],371.15
"1-heptanaminium, N,N,N-trihexyl- perchlorate",CCCCCCC[N+](CCCCCC)(CCCCCC)CCCCCC.[O-][Cl+3]([O-])([O-])[O-],376.15
"1-heptanaminium, N-heptyl-N,N-dihexyl- iodide",CCCCCCC[N+](CCCCCC)(CCCCCC)CCCCCCC.[I-],373.15
"1-heptanaminium, N-heptyl-N,N-dihexyl- perchlorate",CCCCCCC[N+](CCCCCC)(CCCCCC)CCCCCCC.[O-][Cl+3]([O-])([O-])[O-],378.15
tetraheptyl ammonium bis((trifluoromethyl)sulfonyl)imide,CCCCCCC[N+](CCCCCCC)(CCCCCCC)CCCCCCC.O=S(=O)([N-]S(=O)(=O)C(F)(F)F)C(F)(F)F,284.35
"N,N,N-triheptyl-1-heptanaminium bromide",CCCCCCC[N+](CCCCCCC)(CCCCCCC)CCCCCCC.[Br-],364.45
tetraheptylammonium iodide,CCCCCCC[N+](CCCCCCC)(CCCCCCC)CCCCCCC.[I-],396.15
"N,N,N-triheptylheptan-1-aminium perchlorate",CCCCCCC[N+](CCCCCCC)(CCCCCCC)CCCCCCC.[O-][Cl+3]([O-])([O-])[O-],399.15
n-methyl-n-heptyl-pyrrolidinium bis((trifluoromethyl)sulfonyl)imide,CCCCCCC[N+]1(C)CCCC1.O=S(=O)([N-]S(=O)(=O)C(F)(F)F)C(F)(F)F,286.8
triethylheptylphosphonium 4-nitropyrazolide,CCCCCCC[P+](CC)(CC)CC.O=[N+]([O-])c1cn[n-]c1,289
heptyltrihexylphosphonium chloride,CCCCCCC[P+](CCCCCC)(CCCCCC)CCCCCC.[Cl-],298.15
1-heptyl-3-methylpyridinium chloride,CCCCCCC[n+]1cccc(C)c1.[Cl-],345.1
1-heptylpyridinium bis(trifluoromethylsulfonyl)amide,CCCCCCC[n+]1ccccc1.O=S(=O)([N-]S(=O)(=O)C(F)(F)F)C(F)(F)F,272
"1-heptyl-4-(1-fluoroethyl)-1,2,4-triazolium tetrafluoroborate",CCCCCCC[n+]1cn(C(C)F)cn1.F[B-](F)(F)F,325.15
3-heptylbenzo[d]thiazol-3-ium hexafluorophosphate,CCCCCCC[n+]1csc2ccccc21.F[P-](F)(F)(F)(F)F,359.3
1-methyl-2-n-heptyl-3-benzyl imidazolium bromide,CCCCCCCc1n(C)cc[n+]1Cc1ccccc1.[Br-],459.65
"1-heptyl-3-methylimidazolium tetrakis[3,5-bis(trifluoromethyl)phenyl]borate",CCCCCCCn1cc[n+](C)c1.FC(F)(F)c1cc([B-](c2cc(C(F)(F)F)cc(C(F)(F)F)c2)(c2cc(C(F)(F)F)cc(C(F)(F)F)c2)c2cc(C(F)(F)F)cc(C(F)(F)F)c2)cc(C(F)(F)F)c1,342.15
1-heptyl-3-methylimidazolium bis(trifluoromethylsulfonyl)amide,CCCCCCCn1cc[n+](C)c1.O=S(=O)([N-]S(=O)(=O)C(F)(F)F)C(F)(F)F,278.15
1-heptylimidazolium  L-lactate,CCCCCCCn1cc[nH+]c1.C[C@H](O)C(=O)[O-],298.15
"1-butyl-3-methylimidazolium 1,5-bis(hexyloxy)-3-((hexyloxy)carbonyl)-1,5-dioxopentane-2-sulfonate",CCCCCCOC(=O)CC(C(=O)OCCCCCC)C(C(=O)OCCCCCC)S(=O)(=O)[O-].CCCCn1cc[n+](C)c1,251.2
"2-(hexyloxy)-N,N,N-trimethyl-2-oxoethan-1-aminium methanesulfonate",CCCCCCOC(=O)C[N+](C)(C)C.CS(=O)(=O)[O-],376.15
"2-(hexyloxy)-N,N,N-trimethyl-2-oxoethan-1-aminium tetrafluoroborate",CCCCCCOC(=O)C[N+](C)(C)C.F[B-](F)(F)F,331.1
1-((hexyloxy)methyl)pyridinium N-cyclohexylsulfamate,CCCCCCOC[n+]1ccccc1.O=S(=O)([O-])NC1CCCCC1,238.2
1-(1-hexoxymethyl)-3-(1-butoxymethyl)imidazolium hexafluorophosphate,CCCCCCOCn1cc[n+](COCCCC)c1.F[P-](F)(F)(F)(F)F,323.15
"1,3-dihexyloxymethylimidazolium tetrafluoroborate",CCCCCCOCn1cc[n+](COCCCCCC)c1.F[B-](F)(F)F,315.15
1-hexyloxymethylimidazolium  L-lactate,CCCCCCOCn1cc[nH+]c1.C[C@H](O)C(=O)[O-],298.15
pentahexyloxytriphenylene guanidinium chloride,CCCCCCOc1c(OCCCCCC)c(OCCCCCC)c2c3c(OCCCCCC)cccc3c3ccccc3c2c1OCCCCCC.NC(N)=[NH2+].[Cl-],319.15
trimethyl-hexylammonium tetrafluoroborate,CCCCCC[N+](C)(C)C.F[B-](F)(F)F,399.15
hexyltrimethylammonium bis[(trifluoromethyl)sulfonyl]imide,CCCCCC[N+](C)(C)C.O=S(=O)([N-]S(=O)(=O)C(F)(F)F)C(F)(F)F,301.85
"N-adamantyl-N,N-dimethyl-N-hexylammonium bis(fluorosulfonyl)amide",CCCCCC[N+](C)(C)C12CC3CC(CC(C3)C1)C2.O=S(=O)(F)[N-]S(=O)(=O)F,340.8
"N-adamantyl-N,N-dimethyl-N-hexylammonium bis(trifluoromethylsulfonyl)imide",CCCCCC[N+](C)(C)C12CC3CC(CC(C3)C1)C2.O=S(=O)([N-]S(=O)(=O)C(F)(F)F)C(F)(F)F,303.8
dihexyldimethylammonium bromide,CCCCCC[N+](C)(C)CCCCCC.[Br-],327.05
"N-(2-hydroxyethyl)-N,N-dimethylhexan-1-aminium bromide",CCCCCC[N+](C)(C)CCO.[Br-],355.4
"N,N,N',N'-tetramethyl-N,N'-dihexyl-ethylenediammonium di[bis(trifluoromethanesulfonyl)
amide]",CCCCCC[N+](C)(C)CC[N+](C)(C)CCCCCC.O=S(=O)([N-]S(=O)(=O)C(F)(F)F)C(F)(F)F.O=S(=O)([N-]S(=O)(=O)C(F)(F)F)C(F)(F)F,357.15
triethyl-hexylammonium mesylate,CCCCCC[N+](CC)(CC)CC.CS(=O)(=O)[O-],335.15
triethyl-hexylammonium tosylate,CCCCCC[N+](CC)(CC)CC.Cc1ccc(S(=O)(=O)[O-])cc1,382.15
"N,N,N-triethyl-N-hexylammonium tetrafluoroborate",CCCCCC[N+](CC)(CC)CC.F[B-](F)(F)F,361.35
"N,N,N-triethylhexan-1-aminium tricyanomethanide",CCCCCC[N+](CC)(CC)CC.N#C[C-](C#N)C#N,290.03
triethylhexylammonium bis((trifluoromethyl)sulfonyl)imide,CCCCCC[N+](CC)(CC)CC.O=S(=O)([N-]S(=O)(=O)C(F)(F)F)C(F)(F)F,293.125
"N,N,N-triethylhexan-1-aminium trifluoromethanesulfonate",CCCCCC[N+](CC)(CC)CC.O=S(=O)([O-])C(F)(F)F,347.83
"triethylhexylammonium 1,2,3-triazolide",CCCCCC[N+](CC)(CC)CC.[c-]1c[nH]nn1,333
diethyldihexylammonium bromide,CCCCCC[N+](CC)(CC)CCCCCC.[Br-],347.75
tributyl-hexylammonium tosylate,CCCCCC[N+](CCCC)(CCCC)CCCC.Cc1ccc(S(=O)(=O)[O-])cc1,323.15
tributyl-hexylammonium dicyanoamide,CCCCCC[N+](CCCC)(CCCC)CCCC.N#C[N-]C#N,230.15
tributylhexylammonium bis[(trifluoromethyl)sulfonyl]imide,CCCCCC[N+](CCCC)(CCCC)CCCC.O=S(=O)([N-]S(=O)(=O)C(F)(F)F)C(F)(F)F,299.125
"N,N,N-trihexyl-1-hexanaminium tetrafluoroborate",CCCCCC[N+](CCCCCC)(CCCCCC)CCCCCC.F[B-](F)(F)F,365.625
tetrahexyl ammonium bis((trifluoromethyl)sulfonyl)imide,CCCCCC[N+](CCCCCC)(CCCCCC)CCCCCC.O=S(=O)([N-]S(=O)(=O)C(F)(F)F)C(F)(F)F,265.95
tetrahexylammonium nitrate,CCCCCC[N+](CCCCCC)(CCCCCC)CCCCCC.O=[N+]([O-])[O-],340.125
tetrahexylammonium bromide,CCCCCC[N+](CCCCCC)(CCCCCC)CCCCCC.[Br-],373.3125
tetrahexylammonium iodide,CCCCCC[N+](CCCCCC)(CCCCCC)CCCCCC.[I-],377.15
tetrahexylammonium perchlorate,CCCCCC[N+](CCCCCC)(CCCCCC)CCCCCC.[O-][Cl+3]([O-])([O-])[O-],380.125
N-methyl-N-hexyl-pyrrolidinium mesylate,CCCCCC[N+]1(C)CCCC1.CS(=O)(=O)[O-],359.15
N-methyl-N-hexyl-pyrrolidinium tosylate,CCCCCC[N+]1(C)CCCC1.Cc1ccc(S(=O)(=O)[O-])cc1,410.15
N-methyl-N-hexyl-pyrrolidinium dicyanoamide,CCCCCC[N+]1(C)CCCC1.N#C[N-]C#N,262.15
1-hexyl-1-methylpyrrolidinium bis(trifluoromethanesulfonyl)imide,CCCCCC[N+]1(C)CCCC1.O=S(=O)([N-]S(=O)(=O)C(F)(F)F)C(F)(F)F,268.18
N-methyl-N-hexyl-pyrrolidinium perfluorobutylsulfonate,CCCCCC[N+]1(C)CCCC1.O=S(=O)([O-])C(F)(F)C(F)(F)C(F)(F)C(F)(F)F,393.15
1-hexyl-quinuclidinium bis((trifluoromethyl)sulfonyl)imide,CCCCCC[N+]12CCC(CC1)CC2.O=S(=O)([N-]S(=O)(=O)C(F)(F)F)C(F)(F)F,286.85
"1-hexyl-1,4-diazabicyclo[2.2.2]octan-1-ium bis((trifluoromethyl)sulfonyl)amide",CCCCCC[N+]12CCN(CC1)CC2.O=S(=O)([N-]S(=O)(=O)C(F)(F)F)C(F)(F)F,309
trihexylammonium trifluoromethanesulfonate,CCCCCC[NH+](CCCCCC)CCCCCC.O=S(=O)([O-])C(F)(F)F,272.1
trihexylammonium hydrogen sulfate,CCCCCC[NH+](CCCCCC)CCCCCC.O=S(=O)([O-])O,301.9
N-(2-aminoethyl)hexan-1-aminium bis((trifluoromethyl)sulfonyl)amide,CCCCCC[NH2+]CCN.O=S(=O)([N-]S(=O)(=O)C(F)(F)F)C(F)(F)F,291.45
N-hexylethylenediammonium trifluoroacetate,CCCCCC[NH2+]CC[NH3+].O=C([O-])C(F)(F)F.O=C([O-])C(F)(F)F,282.1
N-hexylethylenediaminium bis((trifluoromethyl)sulfonyl)imide,CCCCCC[NH2+]CC[NH3+].O=S(=O)([N-]S(=O)(=O)C(F)(F)F)C(F)(F)F.O=S(=O)([N-]S(=O)(=O)C(F)(F)F)C(F)(F)F,288.65
N-hexylethylenediammonium trifluoromethanesulfonate,CCCCCC[NH2+]CC[NH3+].O=S(=O)([O-])C(F)(F)F.O=S(=O)([O-])C(F)(F)F,321.95
hexyltrimethylphosphonium bis((trifluoromethyl)sulfonyl)imide,CCCCCC[P+](C)(C)C.O=S(=O)([N-]S(=O)(=O)C(F)(F)F)C(F)(F)F,294.15
ethyltrihexylphosphonium bromide,CCCCCC[P+](CC)(CCCCCC)CCCCCC.[Br-],332.65
propyltrihexylphosphonium bromide,CCCCCC[P+](CCC)(CCCCCC)CCCCCC.[Br-],298.15
butyltrihexylphosphonium bromide,CCCCCC[P+](CCCC)(CCCCCC)CCCCCC.[Br-],303.15
tetrahexylphosphonium bromide,CCCCCC[P+](CCCCCC)(CCCCCC)CCCCCC.[Br-],343.15
tetrahexylphosphonium chloride,CCCCCC[P+](CCCCCC)(CCCCCC)CCCCCC.[Cl-],298.15
"1-hexyl-3,5-dimethylpyridinium bis((trifluoromethyl)sulfonyl)imide",CCCCCC[n+]1cc(C)cc(C)c1.O=S(=O)([N-]S(=O)(=O)C(F)(F)F)C(F)(F)F,283
1-hexyl-3-methyl-4-(dimethylamino)pyridinium bis((trifluoromethyl)sulfonyl)imide,CCCCCC[n+]1ccc(N(C)C)c(C)c1.O=S(=O)([N-]S(=O)(=O)C(F)(F)F)C(F)(F)F,271
1-hexyl-3-methyl-4-(dimethylamino)pyridinium bromide,CCCCCC[n+]1ccc(N(C)C)c(C)c1.[Br-],392
1-hexyl-4-(dimethylamino) pyridinium bromide,CCCCCC[n+]1ccc(N(C)C)cc1.[Br-],469
1-hexyl-4-(4-methylpiperidino) pyridinium bis((trifluoromethyl)sulfonyl)imide,CCCCCC[n+]1ccc(N2CCC(C)CC2)cc1.O=S(=O)([N-]S(=O)(=O)C(F)(F)F)C(F)(F)F,310
N-hexylisoquinolinium bis(trifluoromethylsulfonyl)imide,CCCCCC[n+]1ccc2ccccc2c1.O=S(=O)([N-]S(=O)(=O)C(F)(F)F)C(F)(F)F,328.3
1-hexyl-3-methylpyridinium 4-methylbenzenesulfonate,CCCCCC[n+]1cccc(C)c1.Cc1ccc(S(=O)(=O)[O-])cc1,329.3
1-hexyl-3-methylpyridinium trifluoromethanesulfonate,CCCCCC[n+]1cccc(C)c1.O=S(=O)([O-])C(F)(F)F,336.88
1-hexyl-3-methylpyridinium chloride,CCCCCC[n+]1cccc(C)c1.[Cl-],351.1875
1-hexylquinolinium bis(trifluoromethylsulfonyl)amide,CCCCCC[n+]1cccc2ccccc21.O=S(=O)([N-]S(=O)(=O)C(F)(F)F)C(F)(F)F,317.7333333
1-hexylpyridinium bis(trifluromethylsulfonyl)imide,CCCCCC[n+]1ccccc1.O=S(=O)([N-]S(=O)(=O)C(F)(F)F)C(F)(F)F,275.2666667
n-hexyl pyridinium chloride,CCCCCC[n+]1ccccc1.[Cl-],362.325
1-methyl-3-hexylimidazolium perfluorobutanesulfonate,CCCCCC[n+]1ccn(C)c1.O=S(=O)([O-])C(F)(F)C(F)(F)C(F)(F)C(F)(F)F,296.75
3-hexylthiazolium bis((trifluoromethyl)sulfonyl)amide,CCCCCC[n+]1ccsc1.O=S(=O)([N-]S(=O)(=O)C(F)(F)F)C(F)(F)F,289.1
N-hexylbenzothiazolium hexafluorophosphate,CCCCCC[n+]1csc2ccccc21.F[P-](F)(F)(F)(F)F,358.79
1-hexyl-4-nitroimidazolium Nitrate,CCCCCCn1c[nH+]c([N+](=O)[O-])c1.O=[N+]([O-])[O-],284.15
"1-hexyl-3-methylimidazolium tetrakis[3,5-bis(trifluoromethyl)phenyl]borate",CCCCCCn1cc[n+](C)c1.FC(F)(F)c1cc([B-](c2cc(C(F)(F)F)cc(C(F)(F)F)c2)(c2cc(C(F)(F)F)cc(C(F)(F)F)c2)c2cc(C(F)(F)F)cc(C(F)(F)F)c2)cc(C(F)(F)F)c1,355.15
1-hexyl-3-methylimidazolium pentafluoroethyltrifluoroborate,CCCCCCn1cc[n+](C)c1.F[B-](F)(F)C(F)(F)C(F)(F)F,263.15
1-hexyl-3-methylimidazolium tetrafluoroborate,CCCCCCn1cc[n+](C)c1.F[B-](F)(F)F,192.4583333
1-hexyl-3-methylimidazolium hexafluorophosphate,CCCCCCn1cc[n+](C)c1.F[P-](F)(F)(F)(F)F,209.0875
1-hexyl-3-methylimidazolium bis[(trifluoromethyl)sulfonyl]imide,CCCCCCn1cc[n+](C)c1.O=S(=O)([N-]S(=O)(=O)C(F)(F)F)C(F)(F)F,265.6803334
1-hexyl-3-methylimidazolium trifluoromethanesulfonate,CCCCCCn1cc[n+](C)c1.O=S(=O)([O-])C(F)(F)F,300
1-hexyl-3-methylimidazolium hydrosulfate,CCCCCCn1cc[n+](C)c1.O=S(=O)([O-])O,316.15
1-hexyl-3-methylimidazolium 4-nitropyrazolide,CCCCCCn1cc[n+](C)c1.O=[N+]([O-])c1cn[n-]c1,306
1-hexyl-3-methylimidazolium chloride,CCCCCCn1cc[n+](C)c1.[Cl-],348.15
1-hexyl-3-methylimidazolium iodide,CCCCCCn1cc[n+](C)c1.[I-],212.2
"1-hexyl-3-methylimidazolium 1,2,4-triazolide",CCCCCCn1cc[n+](C)c1.[c-]1nc[nH]n1,307
"1-hexyl-2,3-dimethylimidazolium bis((trifluoromethyl)sulfonyl)imide",CCCCCCn1cc[n+](C)c1C.O=S(=O)([N-]S(=O)(=O)C(F)(F)F)C(F)(F)F,268.0166667
2-phenylazo-1-Hexyl-3-methylimidazolium  bis(pentafluoroethylsulfonyl)amide,CCCCCCn1cc[n+](C)c1N=Nc1ccccc1.O=S(=O)([N-]S(=O)(=O)C(F)(F)C(F)(F)F)C(F)(F)C(F)(F)F,306
2-phenylazo-1-Hexyl-3-methylimidazolium bis((trifluoromethyl)sulfonyl)imide,CCCCCCn1cc[n+](C)c1N=Nc1ccccc1.O=S(=O)([N-]S(=O)(=O)C(F)(F)F)C(F)(F)F,321
1-hexyl-3-[2-(diethoxyphosphinyl) ethyl]-1H-imidazolium tetrafluoroborate,CCCCCCn1cc[n+](CCP(=O)(OCC)OCC)c1.F[B-](F)(F)F,190.55
1-hexyl-3-[2-(diethoxyphosphinyl) ethyl]-1H-imidazolium hexafluorophosphate,CCCCCCn1cc[n+](CCP(=O)(OCC)OCC)c1.F[P-](F)(F)(F)(F)F,210.85
1-hexylimidazolium  L-lactate,CCCCCCn1cc[nH+]c1.C[C@H](O)C(=O)[O-],298.15
1-(1-amoxymethyl)-3-(1-butoxymethyl)imidazolium hexafluorophosphate,CCCCCOCn1cc[n+](COCCCC)c1.F[P-](F)(F)(F)(F)F,311.15
1-pentyloxymethylimidazolium  L-lactate,CCCCCOCn1cc[nH+]c1.C[C@H](O)C(=O)[O-],298.15
1-butyl-3-methylimidazolium pentyl sulfate,CCCCCOS(=O)(=O)[O-].CCCCn1cc[n+](C)c1,256.15
1-ethyl-3-methylimidazolium n-pentyltrifluoroborate,CCCCC[B-](F)(F)F.CCn1cc[n+](C)c1,289.15
"N,N-dimethyl-N-amyl-N-(ethoxycarbonylmethyl)ammonium bis((trifluoromethyl)sulfonyl)imide",CCCCC[N+](C)(C)CC(=O)OCC.O=S(=O)([N-]S(=O)(=O)C(F)(F)F)C(F)(F)F,256.15
"N,N-dimethyl-N-ethyl-N-pentylammonium bis(trifluoromethylsulfonyl)",CCCCC[N+](C)(C)CC.O=S(=O)([N-]S(=O)(=O)C(F)(F)F)C(F)(F)F,265.9
dimethyldipentylammonium bromide,CCCCC[N+](C)(C)CCCCC.[Br-],349.35
diethyldipentylammonium bromide,CCCCC[N+](CC)(CC)CCCCC.[Br-],330.65
pentyltripropylammonium bis(pentafluoroethanesulfonyl)amide,CCCCC[N+](CCC)(CCC)CCC.O=S(=O)([N-]S(=O)(=O)C(F)(F)C(F)(F)F)C(F)(F)C(F)(F)F,318.15
tetrapentylammonium thiocyanate,CCCCC[N+](CCCCC)(CCCCC)CCCCC.N#C[S-],322.65
tetrapentylammonium bis((trifluoromethyl)sulfonyl)imide,CCCCC[N+](CCCCC)(CCCCC)CCCCC.O=S(=O)([N-]S(=O)(=O)C(F)(F)F)C(F)(F)F,298.35
tetrapentylammonium nitrate,CCCCC[N+](CCCCC)(CCCCC)CCCCC.O=[N+]([O-])[O-],385.375
tetrapentylammonium bromide,CCCCC[N+](CCCCC)(CCCCC)CCCCC.[Br-],375.03
tetrapentylammonium chloride,CCCCC[N+](CCCCC)(CCCCC)CCCCC.[Cl-],295.15
tetrapentylammonium perchlorate,CCCCC[N+](CCCCC)(CCCCC)CCCCC.[O-][Cl+3]([O-])([O-])[O-],389.1
"1-pentyl-1-methylpyrrolidinium 1,1,1-trifluoro-N-[(trifluoromethyl)sulfonyl]methanesulfonamide",CCCCC[N+]1(C)CCCC1.O=S(=O)([N-]S(=O)(=O)C(F)(F)F)C(F)(F)F,282.7
N-pentyl-N-methylpyrrolidinium perfluorobutylsulfonate,CCCCC[N+]1(C)CCCC1.O=S(=O)([O-])C(F)(F)C(F)(F)C(F)(F)C(F)(F)F,389.15
1-methyl-1-pentylpiperidinium bromide,CCCCC[N+]1(C)CCCCC1.[Br-],446.8
4-methyl-4-pentylmorpholinium bromide,CCCCC[N+]1(C)CCOCC1.[Br-],467
pentylammonium formate,CCCCC[NH3+].O=C[O-],285.125
1-pentyl-3-methylpyridinium chloride,CCCCC[n+]1cccc(C)c1.[Cl-],365.1
1-pentylpyridinium bis(trifluoromethylsulfonyl)amide,CCCCC[n+]1ccccc1.O=S(=O)([N-]S(=O)(=O)C(F)(F)F)C(F)(F)F,272.82
1-methyl-3-pentylimidazolium bis(trifluoromethylsulfonyl)imide,CCCCC[n+]1ccn(C)c1.O=S(=O)([N-]S(=O)(=O)C(F)(F)F)C(F)(F)F,264.1
1-methyl-3-pentylimidazolium chloride,CCCCC[n+]1ccn(C)c1.[Cl-],349.1
N-pentylbenzothiazolium hexafluorophosphate,CCCCC[n+]1csc2ccccc21.F[P-](F)(F)(F)(F)F,412.26
"1-amyl-3-methylimidazolium tetrakis[3,5-bis(trifluoromethyl)phenyl]borate tetrakis[3,5-bis(trifluoromethyl)phenyl]borate",CCCCCn1cc[n+](C)c1.CCCCCn1cc[n+](C)c1.FC(F)(F)c1cc([B-](c2cc(C(F)(F)F)cc(C(F)(F)F)c2)(c2cc(C(F)(F)F)cc(C(F)(F)F)c2)c2cc(C(F)(F)F)cc(C(F)(F)F)c2)cc(C(F)(F)F)c1.FC(F)(F)c1cc([B-](c2cc(C(F)(F)F)cc(C(F)(F)F)c2)(c2cc(C(F)(F)F)cc(C(F)(F)F)c2)c2cc(C(F)(F)F)cc(C(F)(F)F)c2)cc(C(F)(F)F)c1,355.15
1-amyl-3-methylimidazolium hexafluorophosphate,CCCCCn1cc[n+](C)c1.F[P-](F)(F)(F)(F)F,313.15
1-amyl-3-methylimidazolium bis((trifluoromethyl)sulfonyl)imide,CCCCCn1cc[n+](C)c1.O=S(=O)([N-]S(=O)(=O)C(F)(F)F)C(F)(F)F,264.82
1-pentylimidazolium  L-lactate,CCCCCn1cc[nH+]c1.C[C@H](O)C(=O)[O-],298.15
tri-n-butylamine Mesylate,CCCCN(CCCC)CCCC.CS(=O)(=O)O,343.95
"1,3-dimethyl-2-(1-butylimino)imidazolidine benzoyl-1,1,1-trifluoroacetone",CCCCN=C1N(C)CCN1C.O=C(CC(=O)C(F)(F)F)c1ccccc1,321.15
"1,3-dimethyl-2-(1-butylimino)imidazolidine 2-thenoyltrifluoroacetone",CCCCN=C1N(C)CCN1C.O=C(CC(=O)C(F)(F)F)c1cccs1,359.15
Di-n-Butylamine dibutylphosphate,CCCCNCCCC.CCCCOP(=O)(O)OCCCC,336.55
Di-n-Butylamine Mesylate,CCCCNCCCC.CS(=O)(=O)O,345.55
Di-n-Butylamine sulfamic acid,CCCCNCCCC.NS(=O)(=O)O,360.15
Di-n-Butylamine Formate,CCCCNCCCC.O=CO,300.95
1-(1-propoxymethyl)-3-(1-butoxymethyl)imidazolium hexafluorophosphate,CCCCOC[n+]1ccn(COCCC)c1.F[P-](F)(F)(F)(F)F,320.15
"1,3-di(1-butoxymethyl)imidazolium hexafluorophosphate",CCCCOCn1cc[n+](COCCCC)c1.F[P-](F)(F)(F)(F)F,330.15
1-butyloxymethylimidazolium  L-lactate,CCCCOCn1cc[nH+]c1.C[C@H](O)C(=O)[O-],298.15
diethylamine dibutylphosphate,CCCCOP(=O)(O)OCCCC.CCNCC,266.35
ethylenediamine dibutylphosphate,CCCCOP(=O)(O)OCCCC.NCCN,254.85
triethanolamine dibutylphosphate,CCCCOP(=O)(O)OCCCC.OCCN(CCO)CCO,316.35
diethanolamine dibutylphosphate,CCCCOP(=O)(O)OCCCC.OCCNCCO,301.95
Trimethyl-butylammonium Butyl sulfate,CCCCOS(=O)(=O)[O-].CCCC[N+](C)(C)C,335
"N,N-diethyl-N-butyl-N-(methoxycarbonylmethyl)ammonium butyl sulfate",CCCCOS(=O)(=O)[O-].CCCC[N+](CC)(CC)CC(=O)OC,240.15
Ethyl(2-hydroxyethyl)dimethylammonium Butyl sulfate,CCCCOS(=O)(=O)[O-].CC[N+](C)(C)CCO,293
2-hydroxyethyltrimethylammonium Butyl sulfate,CCCCOS(=O)(=O)[O-].C[N+](C)(C)CCO,324
Trimethyl-butylammonium Mesylate,CCCC[N+](C)(C)C.CS(=O)(=O)[O-],440.075
butyltrimethylammonium bis(trifluoromethylsulfonyl)imide,CCCC[N+](C)(C)C.O=S(=O)([N-]S(=O)(=O)C(F)(F)F)C(F)(F)F,286.8878572
"N-adamantyl-N,N-dimethyl-N-butylammonium bis(fluorosulfonyl)amide",CCCC[N+](C)(C)C12CC3CC(CC(C3)C1)C2.O=S(=O)(F)[N-]S(=O)(=O)F,338.4
"N-adamantyl-N,N-dimethyl-N-butylammonium bis(trifluoromethylsulfonyl)imide",CCCC[N+](C)(C)C12CC3CC(CC(C3)C1)C2.O=S(=O)([N-]S(=O)(=O)C(F)(F)F)C(F)(F)F,326.8
Dimethyl-ethyl-butylammonium Ethylsulfate,CCCC[N+](C)(C)CC.CCOS(=O)(=O)[O-],307
dimethyl-ethyl-butylammonium tetrafluoroborate,CCCC[N+](C)(C)CC.F[B-](F)(F)F,431.15
"N-butyl-N,N-dimethyl-N-ethylammonium bis(trifluoromethanesulfonyl)amide",CCCC[N+](C)(C)CC.O=S(=O)([N-]S(=O)(=O)C(F)(F)F)C(F)(F)F,264.125
dimethyl-propyl-butylammonium tricyanomethanide,CCCC[N+](C)(C)CCC.N#C[C-](C#N)C#N,279.65
"N,N-dimethyl-N-propyl-1-butanaminium 1,1,1-trifluoro-N-[(trifluoromethyl)sulfonyl]methanesulfonamide",CCCC[N+](C)(C)CCC.O=S(=O)([N-]S(=O)(=O)C(F)(F)F)C(F)(F)F,291.875
dibutyldimethylammonium hexafluorophosphate,CCCC[N+](C)(C)CCCC.F[P-](F)(F)(F)(F)F,436.65
dibutyldimethylammonium bromide,CCCC[N+](C)(C)CCCC.[Br-],428.65
"N-(2-hydroxyethyl)-N,N-dimethylbutanaminium bromide",CCCC[N+](C)(C)CCO.[Br-],372.2
"N,N,N',N'-tetramethyl-N,N'-dibutyl-ethylenediammonium di[bis(trifluoromethanesulfonyl)
amide]",CCCC[N+](C)(C)CC[N+](C)(C)CCCC.O=S(=O)([N-]S(=O)(=O)C(F)(F)F)C(F)(F)F.O=S(=O)([N-]S(=O)(=O)C(F)(F)F)C(F)(F)F,398.15
"N,N-diethyl-N-methylbutan-1-aminium trifluoro(perfluorobutyl)borate",CCCC[N+](C)(CC)CC.F[B-](F)(F)C(F)(F)C(F)(F)C(F)(F)C(F)(F)F,333.125
"N, N-diethyl-N-methyl-N-(n-butyl)ammonium (heptafluoro-n-propyl)trifluoroborate",CCCC[N+](C)(CC)CC.F[B-](F)(F)C(F)(F)C(F)(F)C(F)(F)F,323.15
"N,N-diethyl-N-methylbutan-1-aminium trifluoro(perfluoroethyl)borate",CCCC[N+](C)(CC)CC.F[B-](F)(F)C(F)(F)C(F)(F)F,288.125
"N,N-diethyl-N-methylbutan-1-aminium trifluoro(trifluoromethyl)borate",CCCC[N+](C)(CC)CC.F[B-](F)(F)C(F)(F)F,270.125
"N,N-diethyl-N-methylbutan-1-aminium tetrafluoroborate",CCCC[N+](C)(CC)CC.F[B-](F)(F)F,438.125
"N,N-diethyl-N-methylbutan-1-aminium bis((trifluoromethyl)sulfonyl)amide",CCCC[N+](C)(CC)CC.O=S(=O)([N-]S(=O)(=O)C(F)(F)F)C(F)(F)F,282.45
"N,N-dibutyl-N-methyl-1-butanaminium methyl sulfate",CCCC[N+](C)(CCCC)CCCC.COS(=O)(=O)[O-],335.1
tributylmethylammonium methanesulfonate,CCCC[N+](C)(CCCC)CCCC.CS(=O)(=O)[O-],351.1
tributylmethylammonium trifluoromethanesulfonate,CCCC[N+](C)(CCCC)CCCC.O=S(=O)([O-])C(F)(F)F,360.4
tributylmethylammonium hydrogen sulfate,CCCC[N+](C)(CCCC)CCCC.O=S(=O)([O-])O,369.6
"N,N,N',N',N''-pentamethyl-N''-butyl-guanidinium  nitrate",CCCC[N+](C)=C(N(C)C)N(C)C.O=[N+]([O-])[O-],345.15
butyltriethyl ammonium bromide,CCCC[N+](CC)(CC)CC.[Br-],490.06
butyltris(3-methylbutyl)ammonium bromide,CCCC[N+](CCC(C)C)(CCC(C)C)CCC(C)C.[Br-],395.15
butyltriisoamylammonium tetraphenylborate,CCCC[N+](CCC(C)C)(CCC(C)C)CCC(C)C.c1ccc([B-](c2ccccc2)(c2ccccc2)c2ccccc2)cc1,536.6
"N,N,N-tri(n-butyl)(4-ethoxy-4-oxobutyl)-1-aminium bromide",CCCC[N+](CCCC)(CCCC)CCCC(=O)OCC.[Br-],363.1
tetrabutylammonium L-alaninate,CCCC[N+](CCCC)(CCCC)CCCC.C[C@H](N)C(=O)[O-],344
tetrabutylammonium p-toluenesulfonate,CCCC[N+](CCCC)(CCCC)CCCC.Cc1ccc(S(=O)(=O)[O-])cc1,346.625