Name,SMILES,Melting_Point_Average(K)
"tetrabutylammonium 4,5-dicyanoimidazolate",CCCC[N+](CCCC)(CCCC)CCCC.N#Cc1nc[n-]c1C#N,352.15
tetrabutylammonium L-arginate,CCCC[N+](CCCC)(CCCC)CCCC.N=C(N)NCCC[C@H](N)C(=O)[O-],352
tetrabutylammonium D-phenylalaninate,CCCC[N+](CCCC)(CCCC)CCCC.N[C@H](Cc1ccccc1)C(=O)[O-],368
"tetrabutylammonium 4-nitro-1,2,3-triazolate",CCCC[N+](CCCC)(CCCC)CCCC.O=C([O-])C1([N+](=O)[O-])C=NN=N1,360.15
"tetrabutylammonium 3,5-dinitro-1,2,4-triazolate",CCCC[N+](CCCC)(CCCC)CCCC.O=C([O-])C1([N+](=O)[O-])N=NC([N+](=O)[O-])=N1,412.15
tetrabutylammonium 5-nitro-benzotriazolate,CCCC[N+](CCCC)(CCCC)CCCC.O=C([O-])c1c([N+](=O)[O-])ccc2[nH]nnc12,333.15
Tetrabutylammonium picolinate,CCCC[N+](CCCC)(CCCC)CCCC.O=C([O-])c1ccccn1,335.15
Tetrabutylammonium nicotinate,CCCC[N+](CCCC)(CCCC)CCCC.O=C([O-])c1cccnc1,436.15
tetrabutylammonium tetrazolate,CCCC[N+](CCCC)(CCCC)CCCC.O=C([O-])c1nnn[nH]1,207.15
Tetrabutylammonium Formate,CCCC[N+](CCCC)(CCCC)CCCC.O=C[O-],342.15
Tetrabutylammonium Dihydrogen phosphate,CCCC[N+](CCCC)(CCCC)CCCC.O=P([O-])(O)O,427.15
tetrabutylammonium tris[(trifluoromethyl)sulfonyl]methide,CCCC[N+](CCCC)(CCCC)CCCC.O=S(=O)([C-](S(=O)(=O)C(F)(F)F)S(=O)(=O)C(F)(F)F)C(F)(F)F,350.6
tetrabutylammonium bis[(trifluoromethyl)sulfonyl]imide,CCCC[N+](CCCC)(CCCC)CCCC.O=S(=O)([N-]S(=O)(=O)C(F)(F)F)C(F)(F)F,364.4
tetrabutylammonium perfluorobutanesulfonate,CCCC[N+](CCCC)(CCCC)CCCC.O=S(=O)([O-])C(F)(F)C(F)(F)C(F)(F)C(F)(F)F,327.13
Tetrabutylammonium Trifluoromethanesulfonate,CCCC[N+](CCCC)(CCCC)CCCC.O=S(=O)([O-])C(F)(F)F,351.15
tetrabutylammonium hydrogen sulfate,CCCC[N+](CCCC)(CCCC)CCCC.O=S(=O)([O-])O,443.2
"tetrabutylammonium 2,2,3,3,4,4,5,5-octafluoropentyl sulfate",CCCC[N+](CCCC)(CCCC)CCCC.O=S(=O)([O-])OCC(F)(F)C(F)(F)C(F)(F)C(F)F,265.15
"tetrabutylammonium 2,2,3,3-tetrafluoropropyl sulfate",CCCC[N+](CCCC)(CCCC)CCCC.O=S(=O)([O-])OCC(F)(F)C(F)F,269.15
"tetrabutylammonium 2,2,2-trifluoroethyl sulfate",CCCC[N+](CCCC)(CCCC)CCCC.O=S(=O)([O-])OCC(F)(F)F,349.15
tetrabutylammonium Nitrate,CCCC[N+](CCCC)(CCCC)CCCC.O=[N+]([O-])[O-],388.8833333
"tetrabutylammonium 2,4-dinitroimidazolate",CCCC[N+](CCCC)(CCCC)CCCC.O=[N+]([O-])c1c[n-]c([N+](=O)[O-])n1,354.15
tetrabutylammonium 4-nitroimidazolate,CCCC[N+](CCCC)(CCCC)CCCC.O=[N+]([O-])c1c[n-]cn1,379.15
"1-butanaminium, N.N.N-tributyl-, salt with 2,4,6-trinitrophenol (1:1)",CCCC[N+](CCCC)(CCCC)CCCC.O=[N+]([O-])c1cc([N+](=O)[O-])c([O-])c([N+](=O)[O-])c1,363.25
tetrabutylammonium 5-nitrobenzimidazolate,CCCC[N+](CCCC)(CCCC)CCCC.O=[N+]([O-])c1ccc2nc[n-]c2c1,354.15
"tetrabutylammonium 4,5-dinitroimidazolate",CCCC[N+](CCCC)(CCCC)CCCC.O=[N+]([O-])c1nc[n-]c1[N+](=O)[O-],358.15
tetrabutylammonium chloride,CCCC[N+](CCCC)(CCCC)CCCC.[Cl-],326.1805556
tetrabutylammonium perchlorate,CCCC[N+](CCCC)(CCCC)CCCC.[O-][Cl+3]([O-])([O-])[O-],487.6
3-tri-n-butylammoniopropanesulfonic acid hydrosulfate,CCCC[N+](CCCC)(CCCC)CCCS(=O)(=O)O.O=S(=O)([O-])O,266.15
dibutyltetramethylguanidinium dicyanamide,CCCC[N+](CCCC)=C(N(C)C)N(C)C.N#C[N-]C#N,371.1
N-methyl-N-butyl-pyrrolidinium mesylate,CCCC[N+]1(C)CCCC1.CS(=O)(=O)[O-],327.4833333
N-methyl-N-butyl-pyrrolidinium tosylate,CCCC[N+]1(C)CCCC1.Cc1ccc(S(=O)(=O)[O-])cc1,387.65
1-butyl-1-methylpyrrolidinium tris(pentafluoroethyl)trifluorophosphate,CCCC[N+]1(C)CCCC1.FC(F)(F)C(F)(F)[P-](F)(F)(F)(C(F)(F)C(F)(F)F)C(F)(F)C(F)(F)F,276
N-methyl-N-butyl-pyrrolidinium hexafluoroarsenate,CCCC[N+]1(C)CCCC1.F[As-](F)(F)(F)(F)F,339.15
N-methyl-N-butyl-pyrrolidinium (heptafluoro-n-propyl)trifluoroborate,CCCC[N+]1(C)CCCC1.F[B-](F)(F)C(F)(F)C(F)(F)C(F)(F)F,279.15
N-methyl-N-butyl-pyrrolidinium pentafluoroethyltrifluoroborate,CCCC[N+]1(C)CCCC1.F[B-](F)(F)C(F)(F)C(F)(F)F,295.15
N-methyl-N-butyl-pyrrolidinium trifluoromethyltrifluoroborate,CCCC[N+]1(C)CCCC1.F[B-](F)(F)C(F)(F)F,255.15
1-butyl-1-methylpyrrolidinium tetrafluoroborate,CCCC[N+]1(C)CCCC1.F[B-](F)(F)F,387.825
1-butyl-1-methylpyrrolidinium hexafluorophosphate,CCCC[N+]1(C)CCCC1.F[P-](F)(F)(F)(F)F,359.7
1-butyl-1-methylpyrrolidinium tetracyanoborate,CCCC[N+]1(C)CCCC1.N#C[B-](C#N)(C#N)C#N,292.2175
1-butyl-1-methylpyrrolidinium tricyanomethanide,CCCC[N+]1(C)CCCC1.N#C[C-](C#N)C#N,265.8733333
1-butyl-1-methylpyrrolidinium dicyanamide,CCCC[N+]1(C)CCCC1.N#C[N-]C#N,223.075
N-butyl-N-methyl pyrrolidinium cyanate,CCCC[N+]1(C)CCCC1.N#C[O-],371.15
1-butyl-1-methylpyrrolidinium thiocyanate,CCCC[N+]1(C)CCCC1.N#C[S-],295.4
N-methyl-N-butyl-pyrrolidinium picolinate,CCCC[N+]1(C)CCCC1.O=C([O-])c1ccccn1,351.15
N-methyl-N-butyl-pyrrolidinium nicotinate,CCCC[N+]1(C)CCCC1.O=C([O-])c1cccnc1,447.15
N-methyl-N-butyl-pyrrolidinium difluorophosphate,CCCC[N+]1(C)CCCC1.O=P([O-])(F)F,300.15
N-methyl-N-butyl-pyrrolidinium dihydrogen phosphate,CCCC[N+]1(C)CCCC1.O=P([O-])(O)O,385.15
1-butyl-1-methylpyrrolidinium bis(fluorosulfonyl)amide,CCCC[N+]1(C)CCCC1.O=S(=O)(F)[N-]S(=O)(=O)F,255.8
1-butyl-1-methylpyrrolidinium bis(nonafluorobutylsulfonyl)imide,CCCC[N+]1(C)CCCC1.O=S(=O)([N-]S(=O)(=O)C(F)(F)C(F)(F)C(F)(F)C(F)(F)F)C(F)(F)C(F)(F)C(F)(F)C(F)(F)F,371
1-butyl-1-methylpyrrolidinium bis((perfluoroethyl)sulfonyl)amide,CCCC[N+]1(C)CCCC1.O=S(=O)([N-]S(=O)(=O)C(F)(F)C(F)(F)F)C(F)(F)C(F)(F)F,280.55
1-butyl-1-methylpyrrolidinium bis[(trifluoromethyl)sulfonyl]imide,CCCC[N+]1(C)CCCC1.O=S(=O)([N-]S(=O)(=O)C(F)(F)F)C(F)(F)F,260.7500439
N-methyl-N-butyl-pyrrolidinium perfluorobutylsulfonate,CCCC[N+]1(C)CCCC1.O=S(=O)([O-])C(F)(F)C(F)(F)C(F)(F)C(F)(F)F,367.15
1-butyl-1-methylpyrrolidinium trifluoromethanesulfonate,CCCC[N+]1(C)CCCC1.O=S(=O)([O-])C(F)(F)F,269.084
"1-butyl-1-methylpyrrolidinium cyclohexafluoropropane-1,3-bis(sulfonyl)imide",CCCC[N+]1(C)CCCC1.O=S1(=O)[N-]S(=O)(=O)C(F)(F)C(F)(F)C1(F)F,292
1-butyl-1-methylpyrrolidinium bromide,CCCC[N+]1(C)CCCC1.[Br-],477
N-methyl-N-butyl-piperidinium (heptafluoro-n-propyl)trifluoroborate,CCCC[N+]1(C)CCCCC1.F[B-](F)(F)C(F)(F)C(F)(F)C(F)(F)F,354.15
N-methyl-N-butyl-piperidinium pentafluoroethyltrifluoroborate,CCCC[N+]1(C)CCCCC1.F[B-](F)(F)C(F)(F)C(F)(F)F,314.15
N-methyl-N-butyl-piperidinium trifluoromethyltrifluoroborate,CCCC[N+]1(C)CCCCC1.F[B-](F)(F)C(F)(F)F,285.15
N-methyl-N-butyl-piperidinium tetrafluoroborate,CCCC[N+]1(C)CCCCC1.F[B-](F)(F)F,419.15
1-butyl-1-methylpiperidinium hexafluorophosphate,CCCC[N+]1(C)CCCCC1.F[P-](F)(F)(F)(F)F,354.7
1-butyl-1-methylpiperidinium thiocyanate,CCCC[N+]1(C)CCCCC1.N#C[S-],304.32
N-methyl-N-butyl-piperidinium difluorophosphate,CCCC[N+]1(C)CCCCC1.O=P([O-])(F)F,314.15
N-methyl-N-butyl-piperidinium bis((trifluoromethyl)sulfonyl)imide,CCCC[N+]1(C)CCCCC1.O=S(=O)([N-]S(=O)(=O)C(F)(F)F)C(F)(F)F,277.4833333
1-butyl-1-methylpiperidinium trifluoromethanesulfonate,CCCC[N+]1(C)CCCCC1.O=S(=O)([O-])C(F)(F)F,309.1
N-butyl-N-methylpiperidinium bromide,CCCC[N+]1(C)CCCCC1.[Br-],513.82
N-butyl-N-methyloxazolidinium (nonafluoro-n-butyl)trifluoroborate,CCCC[N+]1(C)CCOC1.F[B-](F)(F)C(F)(F)C(F)(F)C(F)(F)C(F)(F)F,327.15
N-butyl-N-methyloxazolidinium (heptafluoro-n-propyl)trifluoroborate,CCCC[N+]1(C)CCOC1.F[B-](F)(F)C(F)(F)C(F)(F)C(F)(F)F,326.15
N-butyl-N-methyloxazolidinium pentafluoroethyltrifluoroborate,CCCC[N+]1(C)CCOC1.F[B-](F)(F)C(F)(F)C(F)(F)F,269.15
N-butyl-N-methyloxazolidinium tetrafluoroborate,CCCC[N+]1(C)CCOC1.F[B-](F)(F)F,261.15
N-butyl-N-methyloxazolidinium bis((trifluoromethyl)sulfonyl)imide,CCCC[N+]1(C)CCOC1.O=S(=O)([N-]S(=O)(=O)C(F)(F)F)C(F)(F)F,285.15
N-methyl-N-butylmorpholinium (heptafluoro-n-propyl)trifluoroborate,CCCC[N+]1(C)CCOCC1.F[B-](F)(F)C(F)(F)C(F)(F)C(F)(F)F,342.15
N-methyl-N-butylmorpholinium tetrafluoroborate,CCCC[N+]1(C)CCOCC1.F[B-](F)(F)F,339.15
N-methyl-N-butylmorpholinium bis((trifluoromethyl)sulfonyl)imide,CCCC[N+]1(C)CCOCC1.O=S(=O)([N-]S(=O)(=O)C(F)(F)F)C(F)(F)F,306.05
4-butyl-4-methylmorpholinium bromide,CCCC[N+]1(C)CCOCC1.[Br-],484.335
1-butyl-1-ethylpyrrolidinium ethyl sulfate,CCCC[N+]1(CC)CCCC1.CCOS(=O)(=O)[O-],326
1-butyl-quinuclidinium bis((trifluoromethyl)sulfonyl)imide,CCCC[N+]12CCC(CC1)CC2.O=S(=O)([N-]S(=O)(=O)C(F)(F)F)C(F)(F)F,324.15
"1-butyl-2,3,4,6,7,8,9,10-octahydropyrimido[1,2-a]azepinium thiocyanate",CCCC[N+]1=C2CCCCCN2CCC1.N#C[S-],323.1
"1-butyl-2,3,4,6,7,8,9,10-octahydropyrimido[1,2-a]azepinium bromide",CCCC[N+]1=C2CCCCCN2CCC1.[Br-],355.1
"N-Butyl-3,4-dihydroisoquinolinium tetrafluoroborate",CCCC[N+]1=Cc2ccccc2CC1.F[B-](F)(F)F,316.35
"N,N-diethyl-N-methylbutan-1-aminium trifluoro(perfluoropropyl)borate",CCCC[NH+](CC)CC.F[B-](F)(F)C(F)(F)C(F)(F)C(F)(F)F,323.1
Tri-n-butylammonium Mesylate,CCCC[NH+](CCCC)CCCC.CS(=O)(=O)[O-],349.15
Tri-n-butylammonium bis((trifluoromethyl)sulfonyl)imide,CCCC[NH+](CCCC)CCCC.O=S(=O)([N-]S(=O)(=O)C(F)(F)F)C(F)(F)F,313.15
Tri-n-butylammonium Trifluoromethanesulfonat,CCCC[NH+](CCCC)CCCC.O=S(=O)([O-])C(F)(F)F,401.15
tributylammonium nitrate,CCCC[NH+](CCCC)CCCC.O=[N+]([O-])[O-],292.15
N-butylethylenediaminium bis((trifluoromethyl)sulfonyl)imide,CCCC[NH2+]CC[NH3+].O=S(=O)([N-]S(=O)(=O)C(F)(F)F)C(F)(F)F.O=S(=O)([N-]S(=O)(=O)C(F)(F)F)C(F)(F)F,307.05
Butylammonium pentadecafluorooctanoate,CCCC[NH3+].O=C([O-])C(F)(F)C(F)(F)C(F)(F)C(F)(F)C(F)(F)C(F)(F)C(F)(F)F,318.15
Butylammonium heptafluorobutyrate,CCCC[NH3+].O=C([O-])C(F)(F)C(F)(F)C(F)(F)F,326.15
butylammonium formate,CCCC[NH3+].O=C[O-],275.125
tributylmethylphosphonium methyl sulfate,CCCC[P+](C)(CCCC)CCCC.COS(=O)(=O)[O-],311.1
Methyl(tri-n-butyl)phosphonium bis((trifluoromethyl)sulfonyl)imide,CCCC[P+](C)(CCCC)CCCC.O=S(=O)([N-]S(=O)(=O)C(F)(F)F)C(F)(F)F,289.15
butyltriethylphosphonium 2-methyl-5-nitroimidazolide,CCCC[P+](CC)(CC)CC.Cc1ncc([N+](=O)[O-])[n-]1,290
triethylbutylphosphonium bis((trifluoromethyl)sulfonyl)imide,CCCC[P+](CC)(CC)CC.O=S(=O)([N-]S(=O)(=O)C(F)(F)F)C(F)(F)F,321.8166667
butyltriethylphosphonium 4-nitropyrazolide,CCCC[P+](CC)(CC)CC.O=[N+]([O-])c1cn[n-]c1,320
Tributyl(ethyl)phosphonium tetrafluoroborate,CCCC[P+](CC)(CCCC)CCCC.F[B-](F)(F)F,434.15
"N,N,N-tri(n-butyl)(4-ethoxy-4-oxobutyl)-1-phosphonium bromide",CCCC[P+](CCCC)(CCCC)CCCC(=O)OCC.[Br-],361.1
tetrabutylphosphonium methanesulfonate,CCCC[P+](CCCC)(CCCC)CCCC.CS(=O)(=O)[O-],334.9875
Tetra(n-butyl)phosphonium Tosylate,CCCC[P+](CCCC)(CCCC)CCCC.Cc1ccc(S(=O)(=O)[O-])cc1,330.15
tetrabutylphosphonium hexafluorophosphate,CCCC[P+](CCCC)(CCCC)CCCC.F[P-](F)(F)(F)(F)F,498.6
Tetra(n-butyl)phosphonium picolinate,CCCC[P+](CCCC)(CCCC)CCCC.O=C([O-])c1ccccn1,332.15
Tetra(n-butyl)phosphonium nicotinate,CCCC[P+](CCCC)(CCCC)CCCC.O=C([O-])c1cccnc1,459.15
Tetra(n-butyl)phosphonium isonicotinate,CCCC[P+](CCCC)(CCCC)CCCC.O=C([O-])c1ccncc1,488.15
Tetra(n-butyl)phosphonium Formate,CCCC[P+](CCCC)(CCCC)CCCC.O=C[O-],314.15
Tetra(n-butyl)phosphonium Dihydrogen phosphate,CCCC[P+](CCCC)(CCCC)CCCC.O=P([O-])(O)O,422.15
tetrabutylphosphonium bis((trifluoromethyl)sulfonyl)imide,CCCC[P+](CCCC)(CCCC)CCCC.O=S(=O)([N-]S(=O)(=O)C(F)(F)F)C(F)(F)F,338.15
Tetra(n-butyl)phosphonium Hydrosulfate,CCCC[P+](CCCC)(CCCC)CCCC.O=S(=O)([O-])O,397.15
Tetra(n-butyl)phosphonium Nitrate,CCCC[P+](CCCC)(CCCC)CCCC.O=[N+]([O-])[O-],343.15
tetrabutylphosphonium bromide,CCCC[P+](CCCC)(CCCC)CCCC.[Br-],377.375
tetrabutylphosphonium chloride,CCCC[P+](CCCC)(CCCC)CCCC.[Cl-],336.715
2-Methoxyethyl(tri-n-butyl)phosphonium bis(pentafluoroethanesulfonyl)amide,CCCC[P+](CCCC)(CCCC)CCOC.O=S(=O)([N-]S(=O)(=O)C(F)(F)C(F)(F)F)C(F)(F)C(F)(F)F,298.15
2-methoxyethyl(tri-n-butyl)phosphonium bis(trifluoromethanesulfonyl)imide,CCCC[P+](CCCC)(CCCC)CCOC.O=S(=O)([N-]S(=O)(=O)C(F)(F)F)C(F)(F)F,282.65
"tributyl(methoxymethyl)phosphonium 1,2,3-triazolide",CCCC[P+](CCCC)(CCCC)COC.[c-]1c[nH]nn1,280
tributylphenylphosphonium bromide,CCCC[P+](CCCC)(CCCC)c1ccccc1.[Br-],439.95
dibutyldiphenylphosphonium bromide,CCCC[P+](CCCC)(c1ccccc1)c1ccccc1.[Br-],439.65
butyltribenzylphosphonium benzoate,CCCC[P+](Cc1ccccc1)(Cc1ccccc1)Cc1ccccc1.O=C([O-])c1ccccc1,291.71
tri-butylsulfonium bis((trifluoromethyl)sulfonyl)imide,CCCC[S+](CCCC)CCCC.O=S(=O)([N-]S(=O)(=O)C(F)(F)F)C(F)(F)F,265.65
1-butylthianium bis(trifluoromethylsulfonyl)imide,CCCC[S+]1CCCCC1.O=S(=O)([N-]S(=O)(=O)C(F)(F)F)C(F)(F)F,263.05
"1-butyl-3,5-dimethylpyridinium dicyanamide",CCCC[n+]1cc(C)cc(C)c1.N#C[N-]C#N,272.125
"1-butyl-3,5-dimethylpyridinium thiocyanate",CCCC[n+]1cc(C)cc(C)c1.N#C[S-],286.125
"1-butyl-3,5-dimethylpyridinium 1,1,1-trifluoromethanesulfonate",CCCC[n+]1cc(C)cc(C)c1.O=S(=O)([O-])C(F)(F)F,364.125
"1-butyl-3,5-dimethylpyridinium bromide",CCCC[n+]1cc(C)cc(C)c1.[Br-],368
"1-butyl-2,3,5-trimethylpyridinium 1,1,1-trifluoromethanesulfonate",CCCC[n+]1cc(C)cc(C)c1C.O=S(=O)([O-])C(F)(F)F,347.125
"3-butyl-1,5-dimethylimidazolium bromide",CCCC[n+]1cc(C)n(C)c1.[Br-],383.65
N-butyl-4-methylpyridinium tosylate,CCCC[n+]1ccc(C)cc1.Cc1ccc(S(=O)(=O)[O-])cc1,324.83
4-methyl-N-butylpyridinium benzoate,CCCC[n+]1ccc(C)cc1.O=C([O-])c1ccccc1,283.61
1-butyl-4-methylpyridinium bis((trifluoromethyl)sulfonyl)amide,CCCC[n+]1ccc(C)cc1.O=S(=O)([N-]S(=O)(=O)C(F)(F)F)C(F)(F)F,290.5625
"1-butyl-4-methylpyridinium 1,1,2,2,3,3,4,4,4-nonafluoro-1-butanesulfonate",CCCC[n+]1ccc(C)cc1.O=S(=O)([O-])C(F)(F)C(F)(F)C(F)(F)C(F)(F)F,343.1
1-butyl-4-methylpyridinium trifluoromethanesulfonate,CCCC[n+]1ccc(C)cc1.O=S(=O)([O-])C(F)(F)F,311.1
1-butyl-4-(dimethylamino)pyridinium bromide,CCCC[n+]1ccc(N(C)C)cc1.[Br-],495
2-butylisoquinolinium bis[(trifluoromethyl)sulfonyl]amide,CCCC[n+]1ccc2ccccc2c1.O=S(=O)([N-]S(=O)(=O)C(F)(F)F)C(F)(F)F,321
1-butyl-3-methylpyridinium 4-methylbenzenesulfonate,CCCC[n+]1cccc(C)c1.Cc1ccc(S(=O)(=O)[O-])cc1,322.7125
1-butyl-3-methylpyridinium hexafluorophosphate,CCCC[n+]1cccc(C)c1.F[P-](F)(F)(F)(F)F,324.8
1-butyl-3-methylpyridinium dicyanoamide,CCCC[n+]1cccc(C)c1.N#C[N-]C#N,278
1-butyl-3-methylpyridinium trifluoromethanesulfonate,CCCC[n+]1cccc(C)c1.O=S(=O)([O-])C(F)(F)F,285
1-butyl-3-methylpyridinium chloride,CCCC[n+]1cccc(C)c1.[Cl-],379.825
"1-butyl-2,3-dimethylpyridinium 1,1,1-trifluoromethanesulfonate",CCCC[n+]1cccc(C)c1C.O=S(=O)([O-])C(F)(F)F,290.125
1-butylpyridinium tetrafluoroborate,CCCC[n+]1ccccc1.F[B-](F)(F)F,278.06
n-butyl pyridinium hexafluorophosphate,CCCC[n+]1ccccc1.F[P-](F)(F)(F)(F)F,338.15
n-butyl pyridinium benzoate,CCCC[n+]1ccccc1.O=C([O-])c1ccccc1,283.85
1-butylpyridinium bis[(trifluoromethyl)sulfonyl]imide,CCCC[n+]1ccccc1.O=S(=O)([N-]S(=O)(=O)C(F)(F)F)C(F)(F)F,298.355
"n-butyl pyridinium 2,2,3,3,4,4,5,5-octafluoropentyl sulfate",CCCC[n+]1ccccc1.O=S(=O)([O-])OCC(F)(F)C(F)(F)C(F)(F)C(F)F,276.25
1-butylpyridinium bromide,CCCC[n+]1ccccc1.[Br-],378.155
1-butylpyridinium chloride,CCCC[n+]1ccccc1.[Cl-],402.65
1-butyl-2-methylpyridinium tetrafluoroborate,CCCC[n+]1ccccc1C.F[B-](F)(F)F,301.3
1-(2-hydroxypropyl)-3-butylimidazolium chloride,CCCC[n+]1ccn(CC(C)O)c1.[Cl-],409.65
"1,2-bis(3-butylimidazolium-1-yl)ethane dibromide",CCCC[n+]1ccn(CCn2cc[n+](CCCC)c2)c1.[Br-].[Br-],373.8
"1-butyl-4-(3,3,3-trifluoropropyl)-1,2,4-triazolium trifluoromethanesulfonate",CCCC[n+]1cn(CCC(F)(F)F)cn1.O=S(=O)([O-])C(F)(F)F,306.15
3-butylbenzo[d]thiazol-3-ium hexafluorophosphate(V),CCCC[n+]1csc2ccccc21.F[P-](F)(F)(F)(F)F,394.85
1-butyl-3-methylbenzotriazolium mesylate,CCCC[n+]1nn(C)c2ccccc21.CS(=O)(=O)[O-],330.15
1-butyl-3-methylbenzotriazolium tosylate,CCCC[n+]1nn(C)c2ccccc21.Cc1ccc(S(=O)(=O)[O-])cc1,393.15
1-butyl-3-ethylbenzotriazolium hexafluorophosphate,CCCC[n+]1nn(CC)c2ccccc21.F[P-](F)(F)(F)(F)F,374.15
"1-phenyl-2-butyl-3,5-dimethylpyrazolium tetrafluoroborate",CCCCn1c(C)cc(C)[n+]1-c1ccccc1.F[B-](F)(F)F,340.8
1-butyl-3-methylimidazolium 2-methoxy-2-oxoacetate,CCCCn1cc[n+](C)c1.COC(=O)C(=O)[O-],330
1-butyl-3-methylimidazolium methyl sulfate,CCCCn1cc[n+](C)c1.COS(=O)(=O)[O-],271.275
1-butyl-3-methylimidazolium methanesulfonate,CCCCn1cc[n+](C)c1.CS(=O)(=O)[O-],343.125
1-butyl-3-methylimidazolium tosylate,CCCCn1cc[n+](C)c1.Cc1ccc(S(=O)(=O)[O-])cc1,339.17
1-butyl-3-methylimidazolium tetrachloroferrate,CCCCn1cc[n+](C)c1.Cl[Fe-](Cl)(Cl)Cl,264.86
1-Butyl-3-methylimidazolium tetrakis(hexafluoroisopropoxy)borate,CCCCn1cc[n+](C)c1.FC(F)(F)C(O[B-](OC(C(F)(F)F)C(F)(F)F)(OC(C(F)(F)F)C(F)(F)F)OC(C(F)(F)F)C(F)(F)F)C(F)(F)F,325.7166667
"1-butyl-3-methylimidazolium tetrakis-(3,5-bis(trifluoromethyl)phenyl)borate",CCCCn1cc[n+](C)c1.FC(F)(F)c1cc([B-](c2cc(C(F)(F)F)cc(C(F)(F)F)c2)(c2cc(C(F)(F)F)cc(C(F)(F)F)c2)c2cc(C(F)(F)F)cc(C(F)(F)F)c2)cc(C(F)(F)F)c1,379.15
1-butyl-3-methylimidazolium pentafluoroethyltrifluoroborate,CCCCn1cc[n+](C)c1.F[B-](F)(F)C(F)(F)C(F)(F)F,231.15
1-butyl-3-methylimidazolium tetrafluoroborate,CCCCn1cc[n+](C)c1.F[B-](F)(F)F,194.934375
1-butyl-3-methylimidazolium hexafluorophosphate,CCCCn1cc[n+](C)c1.F[P-](F)(F)(F)(F)F,279.1073587
1-butyl-3-methylimidazolium tricyanomethanide,CCCCn1cc[n+](C)c1.N#C[C-](C#N)C#N,223.15
1-butyl-3-methylimidazolium dicyanamide,CCCCn1cc[n+](C)c1.N#C[N-]C#N,266.368
"1-butyl-3-methylimidazolium 4,5-dicyanoimidazolate",CCCCn1cc[n+](C)c1.N#Cc1nc[n-]c1C#N,199.15
1-butyl-3-methylimidazolium trifluoroacetate,CCCCn1cc[n+](C)c1.O=C([O-])C(F)(F)F,264
"1-butyl-3-methylimidazolium 4-nitro-1,2,3-triazolate",CCCCn1cc[n+](C)c1.O=C([O-])C1([N+](=O)[O-])C=NN=N1,200.15
"1-butyl-3-methylimidazolium 3,5-dinitro-1,2,4-triazolate",CCCCn1cc[n+](C)c1.O=C([O-])C1([N+](=O)[O-])N=NC([N+](=O)[O-])=N1,306.15
1-butyl-3-methylimidazolium 5-nitro-benzotriazolate,CCCCn1cc[n+](C)c1.O=C([O-])c1c([N+](=O)[O-])ccc2[nH]nnc12,232.15
1-Butyl-3-methylimidazolium nicotinate,CCCCn1cc[n+](C)c1.O=C([O-])c1cccnc1,468.15
1-butyl-3-methylimidazolium tetrazolate,CCCCn1cc[n+](C)c1.O=C([O-])c1nnn[nH]1,191.15
1-Butyl-3-methylimidazolium difluorophosphate,CCCCn1cc[n+](C)c1.O=P([O-])(F)F,292.15
1-Butyl-3-methylimidazolium Dihydrogen phosphate,CCCCn1cc[n+](C)c1.O=P([O-])(O)O,438.15
1-butyl-3-methylimidazolium bis(trifluoromethylsulfonyl)imide,CCCCn1cc[n+](C)c1.O=S(=O)([N-]S(=O)(=O)C(F)(F)F)C(F)(F)F,267.6593304
1-butyl-3-methylimidazolium perfluorobutylsulfonate,CCCCn1cc[n+](C)c1.O=S(=O)([O-])C(F)(F)C(F)(F)C(F)(F)C(F)(F)F,296.4333333
1-butyl-3-methylimidazolium trifluoromethanesulfonate,CCCCn1cc[n+](C)c1.O=S(=O)([O-])C(F)(F)F,326.3607143
1-butyl-3-methyl-1H-imidazolium N-cyclohexylsulfamate,CCCCn1cc[n+](C)c1.O=S(=O)([O-])NC1CCCCC1,345.55
1-butyl-3-methylimidazolium hydrogen sulfate,CCCCn1cc[n+](C)c1.O=S(=O)([O-])O,300.3
"1-butyl-3-methylimidazolium 2,2,3,3,4,4,5,5-octafluoropentyl sulfate",CCCCn1cc[n+](C)c1.O=S(=O)([O-])OCC(F)(F)C(F)(F)C(F)(F)C(F)F,211.95
"1-butyl-3-methylimidazolium 4,4,5,5,5-pentafluoropentyl sulfate",CCCCn1cc[n+](C)c1.O=S(=O)([O-])OCCCC(F)(F)C(F)(F)F,258.05
1-butyl-3-methylimidazolium nitrate,CCCCn1cc[n+](C)c1.O=[N+]([O-])[O-],296.3
"1-butyl-3-methylimidazolium 2,4-dinitroimidazolate",CCCCn1cc[n+](C)c1.O=[N+]([O-])c1c[n-]c([N+](=O)[O-])n1,220.15
1-butyl-3-methylimidazolium 4-nitroimidazolate,CCCCn1cc[n+](C)c1.O=[N+]([O-])c1c[n-]cn1,210.15
1-butyl-3-methylimidazolium 5-nitrobenzimidazolate,CCCCn1cc[n+](C)c1.O=[N+]([O-])c1ccc2nc[n-]c2c1,239.15
"1-butyl-3-methylimidazolium 4,5-dinitroimidazolate",CCCCn1cc[n+](C)c1.O=[N+]([O-])c1nc[n-]c1[N+](=O)[O-],209.15
1-butyl-3-methylimidazolium bromide,CCCCn1cc[n+](C)c1.[Br-],347.91875
1-butyl-3-methylimidazolium chloride,CCCCn1cc[n+](C)c1.[Cl-],336.1783493
1-butyl-3-methylimidazolium azide,CCCCn1cc[n+](C)c1.[N-]=[N+]=[N-],309.15
1-butyl-3-methylimidazolium tetraphenylborate,CCCCn1cc[n+](C)c1.c1ccc([B-](c2ccccc2)(c2ccccc2)c2ccccc2)cc1,399.15
"1-butyl-2,3-dimethylimidazolium tetrafluoroborate",CCCCn1cc[n+](C)c1C.F[B-](F)(F)F,309.5583333
"1-butyl-2,3-dimethylimidazolium hexafluorophosphate",CCCCn1cc[n+](C)c1C.F[P-](F)(F)(F)(F)F,309.0375
"1-butyl-2,3-dimethylimidazolium hexafluoroantimonate",CCCCn1cc[n+](C)c1C.F[Sb-](F)(F)(F)(F)F,317.5
"1-butyl-2,3-dimethylimidazolium perfluorobutylsulfonate",CCCCn1cc[n+](C)c1C.O=S(=O)([O-])C(F)(F)C(F)(F)C(F)(F)C(F)(F)F,332.15
"1-butyl-2,3-dimethylimidazolium 2,2,3,3,4,4,5,5-octafluoropentyl sulfate",CCCCn1cc[n+](C)c1C.O=S(=O)([O-])OCC(F)(F)C(F)(F)C(F)(F)C(F)F,258.95
"1-butyl-2,3-dimethylimidazolium 4,4,5,5,5-pentafluoropentyl sulfate",CCCCn1cc[n+](C)c1C.O=S(=O)([O-])OCCCC(F)(F)C(F)(F)F,285.75
"1-butyl-2,3-dimethylimidazolium bromide",CCCCn1cc[n+](C)c1C.[Br-],354.695
"1-butyl-2,3-dimethylimidazolium bromide Iodine",CCCCn1cc[n+](C)c1C.[Br-].[I],370.8
"1-butyl-2,3-dimethylimidazolium chloride",CCCCn1cc[n+](C)c1C.[Cl-],367.545