Name,SMILES,Melting_Point_Average(K)
trimethyl-propargyl ammonium bis((trifluoromethyl)sulfonyl)imide,C#CC[N+](C)(C)C.O=S(=O)([N-]S(=O)(=O)C(F)(F)F)C(F)(F)F,318.15
"1,3-dipropargylimidazolium tetrafluoroborate",C#CCn1cc[n+](CC#C)c1.F[B-](F)(F)F,340.15
"N-Cyclohexyl-3,4-dihydroisoquinolinium tetrafluoroborate",C1=[N+](C2CCCCC2)CCc2ccccc21.F[B-](F)(F)F,341.25
"N-Cyclohexyl-3,4-dihydroisoquinolinium bromide",C1=[N+](C2CCCCC2)CCc2ccccc21.[Br-],436.05
Decahydroisoquinoline acetate,C1CCC2CNCCC2C1.CC(=O)O,351
Decahydroisoquinoline methylsulfate,C1CCC2CNCCC2C1.COS(=O)(=O)O,328
Decahydroisoquinoline trifluoroacetate,C1CCC2CNCCC2C1.O=C(O)C(F)(F)F,340
Decahydroisoquinoline trifluoromethanesulfonate,C1CCC2CNCCC2C1.O=S(=O)(O)C(F)(F)F,331
Decahydroisoquinoline nitrate,C1CCC2CNCCC2C1.O=[N+]([O-])O,338
pyrrolidinium acetate,C1CC[NH2+]C1.CC(=O)[O-],291.95
pyrrolidinium octanoate,C1CC[NH2+]C1.CCCCCCCC(=O)[O-],233.15
pyrrolidinium dibutylphosphate,C1CC[NH2+]C1.CCCCOP(=O)([O-])OCCCC,269.45
pyrrolidinium Mesylate,C1CC[NH2+]C1.CS(=O)(=O)[O-],395.25
Pyrrolidinium heptafluorobutyrate,C1CC[NH2+]C1.O=C([O-])C(F)(F)C(F)(F)C(F)(F)F,277.15
pyrrolidinium trifluoroacetate,C1CC[NH2+]C1.O=C([O-])C(F)(F)F,263.15
pyrrolidinium formate,C1CC[NH2+]C1.O=C[O-],276.8833333
pyrrolidinium hydrogen sulfate,C1CC[NH2+]C1.O=S(=O)([O-])O,243.15
pyrrolidinium nitrate,C1CC[NH2+]C1.O=[N+]([O-])[O-],258.15
piperidinium hydrogen phosphonate,C1CC[NH2+]CC1.O=[PH]([O-])O,356.1
1-(3-butenyl)-3-methyl-imidazolium azide,C=CCCn1cc[n+](C)c1.[N-]=[N+]=[N-],318.15
trimethyl-allylammonium bis((trifluoromethyl)sulfonyl)imide,C=CC[N+](C)(C)C.O=S(=O)([N-]S(=O)(=O)C(F)(F)F)C(F)(F)F,314.15
"N,N-dimethyl-N-allyl-N-(ethoxycarbonylmethyl)ammonium bis((trifluoromethyl)sulfonyl)imide",C=CC[N+](C)(C)CC(=O)OCC.O=S(=O)([N-]S(=O)(=O)C(F)(F)F)C(F)(F)F,299.15
"N-ethyl-N,N-dimethylprop-2-en-1-aminium dicyanamide",C=CC[N+](C)(C)CC.N#C[N-]C#N,240.2
"N-ethyl-N,N-dimethylprop-2-en-1-aminium bis((trifluoromethyl)sulfonyl)amide",C=CC[N+](C)(C)CC.O=S(=O)([N-]S(=O)(=O)C(F)(F)F)C(F)(F)F,284.1
"N-ethyl-N,N-dimethylprop-2-en-1-aminium trifluoromethanesulfonate",C=CC[N+](C)(C)CC.O=S(=O)([O-])C(F)(F)F,262.1
"N,N-diethyl-N-allyl-N-(methoxycarbonylmethyl)ammonium bis((trifluoromethyl)sulfonyl)imide",C=CC[N+](CC)(CC)CC(=O)OC.O=S(=O)([N-]S(=O)(=O)C(F)(F)F)C(F)(F)F,245.15
1-allyl-1-methylpyrrolidinium bis(trifluoromethanesulfonyl)imide,C=CC[N+]1(C)CCCC1.O=S(=O)([N-]S(=O)(=O)C(F)(F)F)C(F)(F)F,284.15
1-Allyl-1-methylpyrrolidinium bromide,C=CC[N+]1(C)CCCC1.[Br-],291.15
1-Allyl-1-methylpiperidinium bromide,C=CC[N+]1(C)CCCCC1.[Br-],334.15
N-Allyl-N-methylmorpholinium bromide,C=CC[N+]1(C)CCOCC1.[Br-],353.15
1-Allyl-1-ethylpiperidinium bromide,C=CC[N+]1(CC)CCCCC1.[Br-],342.15
N-Allyl-N-ethylmorpholinium bromide,C=CC[N+]1(CC)CCOCC1.[Br-],348.15
"N,N-dimethylprop-2-en-1-aminium trifluoromethanesulfonate",C=CC[NH+](C)C.O=S(=O)([O-])C(F)(F)F,289.1
N-allyl-N-methylprop-2-en-1-aminium trifluoromethanesulfonate,C=CC[NH+](C)CC=C.O=S(=O)([O-])C(F)(F)F,254.2
"N,N-diethylprop-2-en-1-aminium trifluoromethanesulfonate",C=CC[NH+](CC)CC.O=S(=O)([O-])C(F)(F)F,259.1
1-allyl-3-methylpyridinium chloride,C=CC[n+]1cccc(C)c1.[Cl-],381.1
1-methyl-3-allylimidazolium tetrafluoroborate,C=CC[n+]1ccn(C)c1.F[B-](F)(F)F,192.05
1-methyl-3-allylimidazolium chloride,C=CC[n+]1ccn(C)c1.[Cl-],290.15
1-allyl-3-methylimidazolium chloride,C=CCn1cc[n+](C)c1.[Cl-],320.2333333
1-allyl-3-methyl-imidazolium azide,C=CCn1cc[n+](C)c1.[N-]=[N+]=[N-],292.15
1-allyl-3-dodecylimidazolium dicyanamide,C=CCn1cc[n+](CCCCCCCCCCCC)c1.N#C[N-]C#N,270.95
1-allyl-3-tetradecylimidazolium dicyanamide,C=CCn1cc[n+](CCCCCCCCCCCCCC)c1.N#C[N-]C#N,287.65
"1-amino-3-(2-propenyl)-1,2,3-triazolium nitrate",C=CCn1cc[n+](N)n1.O=[N+]([O-])[O-],281.15
tri-n-butyl(4-vinylbenzyl)ammonium bis(trifluoromethanesulfonyl)amide,C=Cc1ccc(C[N+](CCCC)(CCCC)CCCC)cc1.O=S(=O)([N-]S(=O)(=O)C(F)(F)F)C(F)(F)F,337.4
4-methyl-4-(4'-vinylbenzyl)morpholinium bis(trifluoromethanesulfonyl)amide,C=Cc1ccc(C[N+]2(C)CCOCC2)cc1.O=S(=O)([N-]S(=O)(=O)C(F)(F)F)C(F)(F)F,349.4
1-(4'-vinylbenzyl)pyridinium bis(trifluoromethanesulfonyl)amide,C=Cc1ccc(C[n+]2ccccc2)cc1.O=S(=O)([N-]S(=O)(=O)C(F)(F)F)C(F)(F)F,323.4
1-methyl-3-(4'-vinylbenzyl)imidazolium bis(trifluoromethanesulfonyl)amide,C=Cc1ccc(C[n+]2ccn(C)c2)cc1.O=S(=O)([N-]S(=O)(=O)C(F)(F)F)C(F)(F)F,311.9
3-(2-azido-3-(1-methyl-1H-imidazol-3-ium-3-yl)propyl)-1-vinyl-1H-imidazol-3-ium di(dicyanamide),C=Cn1cc[n+](CC(C[n+]2ccn(C)c2)N=[N+]=[N-])c1.N#C[N-]C#N.N#C[N-]C#N,292
3-(2-azido-3-(1-methyl-1H-imidazol-3-ium-3-yl)propyl)-1-vinyl-1H-imidazol-3-ium dibromide,C=Cn1cc[n+](CC(C[n+]2ccn(C)c2)N=[N+]=[N-])c1.[Br-].[Br-],296
1-vinyl-3-butylimidazolium bromide,C=Cn1cc[n+](CCCC)c1.[Br-],356.15
1-(2-butynyl)-3-methyl-imidazolium azide,CC#CCn1cc[n+](C)c1.[N-]=[N+]=[N-],339.15
"(t-4)-bis(2,4-pentanedionato-O,O')beryllium",CC(=O)/C=C(/C)[O-].CC(=O)/C=C(/C)[O-].[Be+2],381.1
N-(2-acetyloxy)ethyl-N-methylmorpholinium bromide,CC(=O)OCC[N+]1(C)CCOCC1.[Br-],406.4
tris(2-hydroxypropyl)ammonium acetylsalicylate,CC(=O)Oc1ccccc1C(=O)[O-].CC(O)C[NH+](CC(C)O)CC(C)O,369.1
1-hexadecyl-1-methylpiperidinium acetylsalicylate,CC(=O)Oc1ccccc1C(=O)[O-].CCCCCCCCCCCCCCCC[N+]1(C)CCCCC1,303.9
1-hexadecylpyridinium acetylsalicylate,CC(=O)Oc1ccccc1C(=O)[O-].CCCCCCCCCCCCCCCC[n+]1ccccc1,316.4
"1-Butyl-3-methylimidazolium 1,1-dicyano-1-acetylmethanide",CC(=O)[C-](C#N)C#N.CCCCn1cc[n+](C)c1,244.15
"N-methyl-N-ethyl-pyrrolidinium 1,1-dicyano-1-acetylmethanide",CC(=O)[C-](C#N)C#N.CC[N+]1(C)CCCC1,244.65
"N-Ethyl-N-methylpiperidinium 1,1-dicyano-1-acetylmethanide",CC(=O)[C-](C#N)C#N.CC[N+]1(C)CCCCC1,268.75
"Ethylpyridinium 1,1-dicyano-1-acetylmethanide",CC(=O)[C-](C#N)C#N.CC[n+]1ccccc1,256.95
"1-Ethyl-3-methylimidazolium 1,1-dicyano-1-acetylmethanide",CC(=O)[C-](C#N)C#N.CCn1cc[n+](C)c1,243.85
"1-(2-Methoxyethyl)-3-methylimidazolium 1,1-dicyano-1-acetylmethanide",CC(=O)[C-](C#N)C#N.COCCn1cc[n+](C)c1,243.85
"N, N, N-trioctyl-N-methylammonium acetate",CC(=O)[O-].CCCCCCCC[N+](C)(CCCCCCCC)CCCCCCCC,251.15
triethylbutylammonium acetate,CC(=O)[O-].CCCC[N+](CC)(CC)CC,300.85
Tetrabutylammonium Acetate,CC(=O)[O-].CCCC[N+](CCCC)(CCCC)CCCC,363.15
N-methyl-N-butyl-pyrrolidinium acetate,CC(=O)[O-].CCCC[N+]1(C)CCCC1,350.15
Tetra(n-butyl)phosphonium Acetate,CC(=O)[O-].CCCC[P+](CCCC)(CCCC)CCCC,330.15
N-methyl-N-propylpyrrolidinium acetate,CC(=O)[O-].CCC[N+]1(C)CCCC1,289.8
Diethoxyethyl-dimethylammonium acetate,CC(=O)[O-].CCOC(C[NH+](C)C)OCC,307.45
Diethoxymethylene-dimethylammonium acetate,CC(=O)[O-].CCOC(OCC)=[N+](C)C,312.85
Ethoxymethylene-dimethyl-ethylammonium acetate,CC(=O)[O-].CCOC=C(C)[NH+](C)C,309.25
Ethoxymethylene-ethoxyethyl-ethylammonium acetate,CC(=O)[O-].CCOC=[N+](CC)CCOCC,304.25
Dimethyl-diethylammonium Acetate,CC(=O)[O-].CC[N+](C)(C)CC,357
4-Benzyl-4-ethylmorpholinium acetate,CC(=O)[O-].CC[N+]1(Cc2ccccc2)CCOCC1,298.15
diethylammonium acetate,CC(=O)[O-].CC[NH2+]CC,320.6
ethylammonium acetate,CC(=O)[O-].CC[NH3+],360.125
1-ethyl-3-methylimidazolium acetate,CC(=O)[O-].CCn1cc[n+](C)c1,251.65
"1-methyl-1,2,3,4,5,6,7,8-octahydropyrimido[1,2-a]pyrimidin-5-ium acetate",CC(=O)[O-].CN1CCC[NH+]2CCCN=C12,349
bis(2-methoxyethyl)ammonium Acetate,CC(=O)[O-].COCC[NH2+]CCOC,279.05
4-Benzyl-4-methylmorpholinium acetate,CC(=O)[O-].C[N+]1(Cc2ccccc2)CCOCC1,298.15
1-(2-hydroxyethyl)-3-methylimidazolium acetate,CC(=O)[O-].C[n+]1ccn(CCO)c1,330.1
"1,3-dimethylimidazolium acetate",CC(=O)[O-].Cn1cc[n+](C)c1,303.55
1-methylimidazolium acetate,CC(=O)[O-].Cn1cc[nH+]c1,250.15
1-(1-Cyanoethyl)-3-methylimidazolium nitrate,CC(C#N)n1cc[n+](C)c1.O=[N+]([O-])[O-],315.15
1-(1-Cyanoethyl)-3-methylimidazolium bromide,CC(C#N)n1cc[n+](C)c1.[Br-],404.15
choline pivalate,CC(C)(C)C(=O)[O-].C[N+](C)(C)CCO,369.1
L-phenylalanine tert-butyl ester bis(perfluoroethylsulfonyl)imide,CC(C)(C)OC(=O)[C@@H]([NH3+])Cc1ccccc1.O=S(=O)([N-]S(=O)(=O)C(F)(F)C(F)(F)F)C(F)(F)C(F)(F)F,385.78
L-phenylalanine tert-butyl ester bis(trifluoromethylsulfonyl)amide,CC(C)(C)OC(=O)[C@@H]([NH3+])Cc1ccccc1.O=S(=O)([N-]S(=O)(=O)C(F)(F)F)C(F)(F)F,378.75
N-(tert-butyl)ethanolammonium laurate,CC(C)(C)[NH2+]CCO.CCCCCCCCCCCC(=O)[O-],320.1
N-(tert-butyl)ethanolammonium palmitate,CC(C)(C)[NH2+]CCO.CCCCCCCCCCCCCCCC(=O)[O-],321.1
1-Ethyl-3-methylimidazolium Isobutyrate,CC(C)C(=O)[O-].CCn1cc[n+](C)c1,209
1-(5-methylhexyl)-3-methylimidazolium bis[(trifluoromethyl)sulfonyl]imide,CC(C)CCCCn1cc[n+](C)c1.O=S(=O)([N-]S(=O)(=O)C(F)(F)F)C(F)(F)F,284.3
1-(4-methylpentyl)-3-methylimidazolium bis[(trifluoromethyl)sulfonyl]imide,CC(C)CCCn1cc[n+](C)c1.O=S(=O)([N-]S(=O)(=O)C(F)(F)F)C(F)(F)F,276.3
3-methylbutylammonium formate,CC(C)CC[NH3+].O=C[O-],320.125
1-(3-methylbutyl)-3-methylimidazolium bis[(trifluoromethyl)sulfonyl]imide,CC(C)CCn1cc[n+](C)c1.O=S(=O)([N-]S(=O)(=O)C(F)(F)F)C(F)(F)F,273.1
trihexyl-tetradecylphosphonium diisobutyldithiophosphinate,CC(C)CP(=S)([S-])CC(C)C.CCCCCCCCCCCCCC[P+](CCCCCC)(CCCCCC)CCCCCC,298.15
1-isobutyl-1-methylpyrrolidinium bis((trifluoromethyl)sulfonyl)imide,CC(C)C[N+]1(C)CCCC1.O=S(=O)([N-]S(=O)(=O)C(F)(F)F)C(F)(F)F,272.9
1-isobutyl-1-methylpiperidinium bis((trifluoromethyl)sulfonyl)imide,CC(C)C[N+]1(C)CCCCC1.O=S(=O)([N-]S(=O)(=O)C(F)(F)F)C(F)(F)F,287.9
2-methylpropylammonium formate,CC(C)C[NH3+].O=C[O-],299.125
Triisobutyl(methyl)phosphonium hexafluorophosphate,CC(C)C[P+](C)(CC(C)C)CC(C)C.F[P-](F)(F)(F)(F)F,475.15
Triisobutyl(methyl)phosphonium thiocyanate,CC(C)C[P+](C)(CC(C)C)CC(C)C.N#C[S-],480.15
Triisobutyl(methyl)phosphonium bis(fluorosulfonyl)amide,CC(C)C[P+](C)(CC(C)C)CC(C)C.O=S(=O)(F)[N-]S(=O)(=O)F,309.15
Triisobutyl(methyl)phosphonium bis(trifluoromethanesulfonyl)amide,CC(C)C[P+](C)(CC(C)C)CC(C)C.O=S(=O)([N-]S(=O)(=O)C(F)(F)F)C(F)(F)F,323.15
tri-isobutyl  phosphonium Mesylate,CC(C)C[PH+](CC(C)C)CC(C)C.CS(=O)(=O)[O-],278.15
tri-isobutyl  phosphonium bis((trifluoromethyl)sulfonyl)imide,CC(C)C[PH+](CC(C)C)CC(C)C.O=S(=O)([N-]S(=O)(=O)C(F)(F)F)C(F)(F)F,323.15
tri-isobutyl  phosphonium Trifluoromethanesulfonat,CC(C)C[PH+](CC(C)C)CC(C)C.O=S(=O)([O-])C(F)(F)F,461.15
tri-isobutyl  phosphonium Nitrate,CC(C)C[PH+](CC(C)C)CC(C)C.O=[N+]([O-])[O-],279.15
1-isobutyl-3-methylimidazolium bis[(trifluoromethyl)sulfonyl]amide,CC(C)Cn1cc[n+](C)c1.O=S(=O)([N-]S(=O)(=O)C(F)(F)F)C(F)(F)F,245.025
1-(2-Diisopropylaminoethyl)dimethylethylammonium bis((trifluoromethyl)sulfonyl)imide,CC(C)N(CCC(C)[NH+](C)C)C(C)C.O=S(=O)([N-]S(=O)(=O)C(F)(F)F)C(F)(F)F,200.15
1-(2-Diisopropylaminoethyl)-3-methylimidazolium bis((trifluoromethyl)sulfonyl)imide,CC(C)N(CCn1cc[n+](C)c1)C(C)C.O=S(=O)([N-]S(=O)(=O)C(F)(F)F)C(F)(F)F,306.15
tetrabutylphosphonium L-valinate,CC(C)[C@H](N)C(=O)[O-].CCCC[P+](CCCC)(CCCC)CCCC,298.92
valinium nitrate,CC(C)[C@H]([NH3+])C(=O)O.O=[N+]([O-])[O-],407.15
trimethyl-isopropylammonium bis((trifluoromethyl)sulfonyl)imide,CC(C)[N+](C)(C)C.O=S(=O)([N-]S(=O)(=O)C(F)(F)F)C(F)(F)F,402.15
1-methyl-3-(1-methylethyl)imidazolium hexafluorophosphate,CC(C)[n+]1ccn(C)c1.F[P-](F)(F)(F)(F)F,375.1
1-methyl-3-(1-methylethyl)imidazolium bis[(trifluoromethyl)sulfonyl]imide,CC(C)[n+]1ccn(C)c1.O=S(=O)([N-]S(=O)(=O)C(F)(F)F)C(F)(F)F,285.6
1-methyl-3-(1-methylethyl)imidazolium iodide,CC(C)[n+]1ccn(C)c1.[I-],387.1
"1-iso-propyl-3-(1,1,2,2-tetrafluoroethyl)imidazolium bis((trifluoromethyl)sulfonyl)imide",CC(C)n1cc[n+](C(F)(F)C(F)F)c1.O=S(=O)([N-]S(=O)(=O)C(F)(F)F)C(F)(F)F,284.65
1-isopropyl-3-methylimidazolium hexafluorophosphate,CC(C)n1cc[n+](C)c1.F[P-](F)(F)(F)(F)F,375.15
1-isopropyl-3-methylimidazolium bis((trifluoromethyl)sulfonyl)imide,CC(C)n1cc[n+](C)c1.O=S(=O)([N-]S(=O)(=O)C(F)(F)F)C(F)(F)F,289.15
1-isopropyl-3-methylimidazolium perfluorobutylsulfonate,CC(C)n1cc[n+](C)c1.O=S(=O)([O-])C(F)(F)C(F)(F)C(F)(F)C(F)(F)F,298.15
1-isopropyl-3-methylimidazolium bromide,CC(C)n1cc[n+](C)c1.[Br-],352.1
"trihexyl-tetradecylphosphonium bis(2,4,4-trimethylpentyl)phosphinate",CC(CC(C)(C)C)CP(=O)([O-])CC(C)CC(C)(C)C.CCCCCCCCCCCCCC[P+](CCCCCC)(CCCCCC)CCCCCC,298.15
1-(6-Dimethylaminohexyl)dimethylethylammonium bis((trifluoromethyl)sulfonyl)imide,CC(CCCCCCN(C)C)[NH+](C)C.O=S(=O)([N-]S(=O)(=O)C(F)(F)F)C(F)(F)F,214.15
1-(2-Dimethylaminoethyl)dimethylethylammonium bis((trifluoromethyl)sulfonyl)imide,CC(CCN(C)C)[NH+](C)C.O=S(=O)([N-]S(=O)(=O)C(F)(F)F)C(F)(F)F,296.15
ethyl(2-hydroxyethyl)dimethylammonium bis{(trifluomethyl)sulfonyl}imide,CC(F)(F)S(=O)(=O)[N-]S(=O)(=O)C(F)(F)F.CC[N+](C)(C)CCO,279.18
1-dodecyloxymethylimidazolium DL-lactate,CC(O)C(=O)[O-].CCCCCCCCCCCCOCn1cc[nH+]c1,298.15
1-dodecylimidazolium DL-lactate,CC(O)C(=O)[O-].CCCCCCCCCCCCn1cc[nH+]c1,298.15
1-undecyloxymethylimidazolium DL-lactate,CC(O)C(=O)[O-].CCCCCCCCCCCOCn1cc[nH+]c1,298.15
1-decyloxymethylimidazolium DL-lactate,CC(O)C(=O)[O-].CCCCCCCCCCOCn1cc[nH+]c1,298.15
1-decylimidazolium DL-lactate,CC(O)C(=O)[O-].CCCCCCCCCCn1cc[nH+]c1,298.15
1-nonyloxymethylimidazolium DL-lactate,CC(O)C(=O)[O-].CCCCCCCCCOCn1cc[nH+]c1,298.15
1-nonylimidazolium DL-lactate,CC(O)C(=O)[O-].CCCCCCCCCn1cc[nH+]c1,298.15
1-octyloxymethylimidazolium DL-lactate,CC(O)C(=O)[O-].CCCCCCCCOCn1cc[nH+]c1,298.15
1-octylimidazolium DL-lactate,CC(O)C(=O)[O-].CCCCCCCCn1cc[nH+]c1,298.15
1-heptyloxymethylimidazolium DL-lactate,CC(O)C(=O)[O-].CCCCCCCOCn1cc[nH+]c1,298.15
1-heptylimidazolium DL-lactate,CC(O)C(=O)[O-].CCCCCCCn1cc[nH+]c1,298.15
1-hexyloxymethylimidazolium DL-lactate,CC(O)C(=O)[O-].CCCCCCOCn1cc[nH+]c1,298.15
1-hexylimidazolium DL-lactate,CC(O)C(=O)[O-].CCCCCCn1cc[nH+]c1,298.15
1-pentyloxymethylimidazolium DL-lactate,CC(O)C(=O)[O-].CCCCCOCn1cc[nH+]c1,298.15
1-pentylimidazolium DL-lactate,CC(O)C(=O)[O-].CCCCCn1cc[nH+]c1,298.15
1-butyloxymethylimidazolium DL-lactate,CC(O)C(=O)[O-].CCCCOCn1cc[nH+]c1,298.15
1-butylimidazolium DL-lactate,CC(O)C(=O)[O-].CCCCn1cc[nH+]c1,298.15
1-propylimidazolium DL-lactate,CC(O)C(=O)[O-].CCCn1cc[nH+]c1,298.15
1-ethylimidazolium DL-lactate,CC(O)C(=O)[O-].CCn1cc[nH+]c1,298.15
"1,1,3,3-tetramethylguanidinium lactate",CC(O)C(=O)[O-].CN(C)C(=[NH2+])N(C)C,223.1
4-Benzyl-4-methylmorpholinium lactate,CC(O)C(=O)[O-].C[N+]1(Cc2ccccc2)CCOCC1,298.15
1-methylimidazolium DL-lactate,CC(O)C(=O)[O-].Cn1cc[nH+]c1,298.15
Guanidinium DL-lactate,CC(O)C(=O)[O-].NC(N)=[NH2+],425.15
beta.-methylcholine chloride,CC(O)C[N+](C)(C)C.[Cl-],442
tris(2-hydroxypropyl)ammonium malonate,CC(O)C[NH+](CC(C)O)CC(C)O.CC(O)C[NH+](CC(C)O)CC(C)O.O=C([O-])CC(=O)[O-],360.1
tris(2-hydroxypropyl)ammonium malate,CC(O)C[NH+](CC(C)O)CC(C)O.CC(O)C[NH+](CC(C)O)CC(C)O.O=C([O-])CC(O)C(=O)[O-],371.1
tris(2-hydroxypropyl)ammonium succinate,CC(O)C[NH+](CC(C)O)CC(C)O.CC(O)C[NH+](CC(C)O)CC(C)O.O=C([O-])CCC(=O)[O-],368.1
tris(2-hydroxypropyl)ammonium 2-methyl-4-chlorophenoxyacetate,CC(O)C[NH+](CC(C)O)CC(C)O.Cc1cc(Cl)ccc1OCC(=O)[O-],371.1
tris(2-hydroxypropyl)ammonium hydrogen oxalate,CC(O)C[NH+](CC(C)O)CC(C)O.O=C([O-])C(=O)O,393.1
tris(2-hydroxypropyl)ammonium cinnamate,CC(O)C[NH+](CC(C)O)CC(C)O.O=C([O-])C=Cc1ccccc1,360.1
tris(2-hydroxypropyl)ammonium hydrogen malonate,CC(O)C[NH+](CC(C)O)CC(C)O.O=C([O-])CC(=O)O,380.1
tris(2-hydroxypropyl)ammonium benzoate,CC(O)C[NH+](CC(C)O)CC(C)O.O=C([O-])c1ccccc1,359.1
tris(2-hydroxypropyl)ammonium salicylate,CC(O)C[NH+](CC(C)O)CC(C)O.O=C([O-])c1ccccc1O,376.1
tris(2-hydroxypropyl)ammonium nicotinate,CC(O)C[NH+](CC(C)O)CC(C)O.O=C([O-])c1cccnc1,391.1
"1-(2,2-dimethyl-1,3-dioxolan-4-yl)-N,N-dimethyl-N-(pyridin-3-ylmethyl)methanaminium tetrafluoroborate",CC1(C)OCC(C[N+](C)(C)Cc2cccnc2)O1.F[B-](F)(F)F,293.95
"3-azido-5-methyl-1H-1,2,4-triazol-1-ium nitrate",CC1=NC(N=[N+]=[N-])=N[NH2+]1.O=[N+]([O-])[O-],391.1
"1,3,5-trimethyl-1H-tetrazolium nitrate",CC1=NN(C)N[NH+]1C.O=[N+]([O-])[O-],367.1
"2,4,5-trimethyltetrazolium nitrate",CC1=[NH+]N(C)NN1C.O=[N+]([O-])[O-],367.15
"2,4,5-trimethyltetrazolium perchlorate",CC1=[NH+]N(C)NN1C.[O-][Cl+3]([O-])([O-])[O-],406.15
"3-amino-1,5-dimethyl-2,3-dihydro-1H-tetrazol-4-ium nitrate",CC1=[NH+]N(N)NN1C.O=[N+]([O-])[O-],367.125
"4,5-dimethyl-2-aminotetrazolium perchlorate",CC1=[NH+]N(N)NN1C.[O-][Cl+3]([O-])([O-])[O-],413.15
1-(2-pentynyl)-3-methyl-imidazolium azide,CCC#CCn1cc[n+](C)c1.[N-]=[N+]=[N-],292.15
cholinium propanoate,CCC(=O)[O-].C[N+](C)(C)CCO,282.57
triethyl-(2-methylbutyl)-ammonium bromide,CCC(C)C[N+](CC)(CC)CC.[Br-],373.15
2-methylbutylammonium formate,CCC(C)C[NH3+].O=C[O-],272.125
1-sec-butyl-3-methylimidazolium perfluorobutylsulfonate,CCC(C)n1cc[n+](C)c1.O=S(=O)([O-])C(F)(F)C(F)(F)C(F)(F)C(F)(F)F,315.15
triethylamylammonium bis((trifluoromethyl)sulfonyl)imide,CCC(CC)(CC)CCCC[NH3+].O=S(=O)([N-]S(=O)(=O)C(F)(F)F)C(F)(F)F,248.15
triethylamylphosphonium bis((trifluoromethyl)sulfonyl)imide,CCC(CC)(CC)CCCC[PH3+].O=S(=O)([N-]S(=O)(=O)C(F)(F)F)C(F)(F)F,290.15
4-Benzyl-4-methylmorpholinium 2-ethylbutyrate,CCC(CC)C(=O)[O-].C[N+]1(Cc2ccccc2)CCOCC1,298.15
(buten-1-yl)triethylphosphonium bis(trifluoromethylsulfonyl)amide,CCC=C[P+](CC)(CC)CC.O=S(=O)([N-]S(=O)(=O)C(F)(F)F)C(F)(F)F,322
(buten-1-yl)triethylphosphonium 4-nitropyrazolide,CCC=C[P+](CC)(CC)CC.O=[N+]([O-])c1cn[n-]c1,312
N-butyronitrile pyridinium tetrafluoroborate,CCCC#N.F[B-](F)(F)F.c1cc[nH+]cc1,334.55
N-butyronitrile pyridinium hexafluorophosphate,CCCC#N.F[P-](F)(F)(F)(F)F.c1cc[nH+]cc1,371.15
N-butyronitrile pyridinium bis((trifluoromethyl)sulfonyl)imide,CCCC#N.O=S(=O)([N-]S(=O)(=O)C(F)(F)F)C(F)(F)F.c1cc[nH+]cc1,208.65
N-butyronitrile pyridinium chloride,CCCC#N.[Cl-].c1cc[nH+]cc1,358.25
Dimethyl-diethylammonium Butyrate,CCCC(=O)[O-].CC[N+](C)(C)CC,356
choline butanoate,CCCC(=O)[O-].C[N+](C)(C)CCO,315.98
Tetraethylammonium pentanoate,CCCCC(=O)[O-].CC[N+](CC)(CC)CC,323.15
1-Butyl-3-methylimidazolium bis(2-ethylhexyl)sulfosuccinate,CCCCC(CC)CC(CC(CC)CCCC)(C(=O)[O-])C(C(=O)[O-])S(=O)(=O)O.CCCCn1cc[n+](C)c1.CCCCn1cc[n+](C)c1,254.15
"1-butyl-3-methyl-1H-imidazolium 1,4-bis((2-ethylhexyl)oxy)-1,4-dioxobutane-2-sulfonate",CCCCC(CC)COC(=O)CC(C(=O)OCC(CC)CCCC)S(=O)(=O)[O-].CCCCn1cc[n+](C)c1,254.2
N-(2-ethylhexyl)ethylenediammonium trifluoroacetate,CCCCC(CC)C[NH2+]CC[NH3+].O=C([O-])C(F)(F)F.O=C([O-])C(F)(F)F,286.05
"1-methyl-3-(9Z,12Z)-9,12-octadecadien-1-yl-1H-imidazolium 1,1,1-trifluoro-N-[(trifluoromethyl)sulfonyl]methanesulfonamide",CCCCC/C=C\C/C=C\CCCCCCCC[n+]1ccn(C)c1.O=S(=O)([N-]S(=O)(=O)C(F)(F)F)C(F)(F)F,226.4
"1-butyl-1',2,2',3,3',4,4',5-octamethylferrocenium bis(trifluoromethylsulfonyl)amide",CCCCC1C(C)=C(C)C(C)=C1C.Cc1c[c-](C)c(C)c1C.O=S(=O)([N-]S(=O)(=O)C(F)(F)F)C(F)(F)F.[Fe+2],307.55
4-Benzyl-4-methylmorpholinium hexanoate,CCCCCC(=O)[O-].C[N+]1(Cc2ccccc2)CCOCC1,298.15
lead(2+) diheptanoate,CCCCCCC(=O)[O-].CCCCCCC(=O)[O-].[Pb+2],374.7
"1-hexyl-1',2,2',3,3',4,4',5-octamethylferrocenium bis(trifluoromethylsulfonyl)amide",CCCCCCC1C(C)=C(C)C(C)=C1C.Cc1c[c-](C)c(C)c1C.O=S(=O)([N-]S(=O)(=O)C(F)(F)F)C(F)(F)F.[Fe+2],300.85
mercury (II) octoate,CCCCCCCC(=O)[O-].CCCCCCCC(=O)[O-].[Hg+2],387.2
Butylammonium octanoate,CCCCCCCC(=O)[O-].CCCC[NH3+],258.15
Ethylammonium octanoate,CCCCCCCC(=O)[O-].CC[NH3+],269.15
4-Benzyl-4-methylmorpholinium octanoate,CCCCCCCC(=O)[O-].C[N+]1(Cc2ccccc2)CCOCC1,298.15
"1-methyl-3-(9E)-9-octadecen-1-yl-1H-Imidazolium 1,1,1-trifluoro-N-[(trifluoromethyl)sulfonyl]methanesulfonamide",CCCCCCCC/C=C/CCCCCCCC[n+]1ccn(C)c1.O=S(=O)([N-]S(=O)(=O)C(F)(F)F)C(F)(F)F,289.2
methyltrioctylammonium oleate,CCCCCCCC/C=C\CCCCCCCC(=O)[O-].CCCCCCCC[N+](C)(CCCCCCCC)CCCCCCCC,267.2
tetraoctylammonium oleate,CCCCCCCC/C=C\CCCCCCCC(=O)[O-].CCCCCCCC[N+](CCCCCCCC)(CCCCCCCC)CCCCCCCC,248
1-methyl-3-oleylimidazolium tetrafluoroborate,CCCCCCCC/C=C\CCCCCCCC[n+]1ccn(C)c1.F[B-](F)(F)F,288.1
1-oleyl-3-methylimidazolium bis(trifluoromethanesulfonyl)imide,CCCCCCCC/C=C\CCCCCCCCn1cc[n+](C)c1.O=S(=O)([N-]S(=O)(=O)C(F)(F)F)C(F)(F)F,252.275
lead(2+) nonanoate,CCCCCCCCC(=O)[O-].CCCCCCCCC(=O)[O-].[Pb+2],384.8
(2-decanoyloxyethyl)dimethylpentyloxymethylammonium trifluoroacetate,CCCCCCCCCC(=O)OCC[N+](C)(C)COCCCCC.O=C([O-])C(F)(F)F,279.8
"decanoic acid, mercuric salt",CCCCCCCCCC(=O)[O-].CCCCCCCCCC(=O)[O-].[Hg+2],389.3
trihexyl-tetradecylphosphonium decanoate,CCCCCCCCCC(=O)[O-].CCCCCCCCCCCCCC[P+](CCCCCC)(CCCCCC)CCCCCC,298.15
decanoic acid cyclohexanamine salt (1:1),CCCCCCCCCC(=O)[O-].[N+]C1CCCCC1,353.65