Name,SMILES,Melting_Point_Average(K)
"1-(2-azidoethyl)-4-methyl-4H-1,2,4-triazol-1-ium perchlorate",Cn1cn[n+](CCN=[N+]=[N-])c1.[O-][Cl+3]([O-])([O-])[O-],221.1
"1-amino-4-methyl-4H-1,2,4-triazol-1-ium perchlorate",Cn1cn[n+](N)c1.[O-][Cl+3]([O-])([O-])[O-],381.125
1-benzyl-3-methylbenzotriazolium bis((trifluoromethyl)sulfonyl)imide,Cn1n[n+](Cc2ccccc2)c2ccccc21.O=S(=O)([N-]S(=O)(=O)C(F)(F)F)C(F)(F)F,342.15
1-benzyl-3-methylbenzotriazolium bromide,Cn1n[n+](Cc2ccccc2)c2ccccc21.[Br-],446.15
"1,5-diamino-4-methyl-1H-tetrazolium dinitramide",Cn1n[nH+]n(N)c1=N.O=[N+]([O-])[N-][N+](=O)[O-],357.6
"1,1'-(decane-1,10-diyl)bis(3-(3-((3,3,4,4,5,5,6,6,7,7,8,8,9,9,10,10,10-heptadecafluorodecyl)thio)propyl)-1H-imidazol-3-ium) bis((trifluoromethyl)sulfonyl)imide",FC(F)(F)C(F)(F)C(F)(F)C(F)(F)C(F)(F)C(F)(F)C(F)(F)C(F)(F)CCSCCC[n+]1ccn(CCCCCCCCCCn2cc[n+](CCCSCCC(F)(F)C(F)(F)C(F)(F)C(F)(F)C(F)(F)C(F)(F)C(F)(F)C(F)(F)F)c2)c1.O=S(=O)([N-]S(=O)(=O)C(F)(F)F)C(F)(F)F.O=S(=O)([N-]S(=O)(=O)C(F)(F)F)C(F)(F)F,290.1
"1,1'-(ethane-1,2-diyl)bis(3-(3-((3,3,4,4,5,5,6,6,7,7,8,8,9,9,10,10,10-heptadecafluorodecyl)thio)propyl)-1H-imidazol-3-ium) bis((trifluoromethyl)sulfonyl)imide",FC(F)(F)C(F)(F)C(F)(F)C(F)(F)C(F)(F)C(F)(F)C(F)(F)C(F)(F)CCSCCC[n+]1ccn(CCn2cc[n+](CCCSCCC(F)(F)C(F)(F)C(F)(F)C(F)(F)C(F)(F)C(F)(F)C(F)(F)C(F)(F)F)c2)c1.O=S(=O)([N-]S(=O)(=O)C(F)(F)F)C(F)(F)F.O=S(=O)([N-]S(=O)(=O)C(F)(F)F)C(F)(F)F,338.1
"1,3-bis(3-((3,3,4,4,5,5,6,6,7,7,8,8,9,9,10,10,10-heptadecafluorodecyl)thio)propyl)-1H-imidazol-3-ium bis((trifluoromethyl)sulfonyl)imide",FC(F)(F)C(F)(F)C(F)(F)C(F)(F)C(F)(F)C(F)(F)C(F)(F)C(F)(F)CCSCCCn1cc[n+](CCCSCCC(F)(F)C(F)(F)C(F)(F)C(F)(F)C(F)(F)C(F)(F)C(F)(F)C(F)(F)F)c1.O=S(=O)([N-]S(=O)(=O)C(F)(F)F)C(F)(F)F,353
"N,N_¢__?di(trifluoro-propyl)-4,4_¢__?bipyridinium di[bis((trifluoromethyl)sulfonyl)imide]",FC(F)(F)CC[n+]1ccc(-c2cc[n+](CCC(F)(F)F)cc2)cc1.O=S(=O)([N-]S(=O)(=O)C(F)(F)F)C(F)(F)F.O=S(=O)([N-]S(=O)(=O)C(F)(F)F)C(F)(F)F,369.15
"N,N_¢__?di(trifluoro-propyl)-4,4_¢__?bipyridinium di[trifluoromethanesulfonate]",FC(F)(F)CC[n+]1ccc(-c2cc[n+](CCC(F)(F)F)cc2)cc1.O=S(=O)([O-])C(F)(F)F.O=S(=O)([O-])C(F)(F)F,376.15
"N,N_¢__?di(fluoro-propyl)-4,4_¢__?bipyridinium di[bis((trifluoromethyl)sulfonyl)imide]",FCCC[n+]1ccc(-c2cc[n+](CCCF)cc2)cc1.O=S(=O)([N-]S(=O)(=O)C(F)(F)F)C(F)(F)F.O=S(=O)([N-]S(=O)(=O)C(F)(F)F)C(F)(F)F,337.15
"N,N_¢__?di(fluoro-propyl)-4,4_¢__?bipyridinium di[trifluoromethanesulfonate]",FCCC[n+]1ccc(-c2cc[n+](CCCF)cc2)cc1.O=S(=O)([O-])C(F)(F)F.O=S(=O)([O-])C(F)(F)F,362.15
Guanidinium tetrafluoroborate,F[B-](F)(F)F.NC(N)=[NH2+],441.15
prolinium tetrafluoroborate,F[B-](F)(F)F.O=C(O)[C@@H]1CCC[NH2+]1,349.15
tris(2-hydroxyethyl)ammonium tetrafluoroborate,F[B-](F)(F)F.OCC[NH+](CCO)CCO,345.26
diethanolammonium tetrafluoroborate,F[B-](F)(F)F.OCC[NH2+]CCO,303.84
glycinium tetrafluoroborate,F[B-](F)(F)F.[NH3+]CC(=O)O,389.15
2-hydroxyethanaminium tetrafluoroborate,F[B-](F)(F)F.[NH3+]CCO,306.76
benzothiazolium tetrafluoroborate,F[B-](F)(F)F.c1ccc2sc[nH+]c2c1,398.15
glycinium hexafluorophosphate,F[P-](F)(F)(F)(F)F.[NH3+]CC(=O)O,374.15
2-fluoropyridinium triflate,Fc1cccc[nH+]1.O=S(=O)([O-])C(F)(F)F,299.1
N-(3-cyanopropyl)pyridinium tricyanomethanide,N#CCCC[n+]1ccccc1.N#C[C-](C#N)C#N,305.2
1-(2-cyanoethyl)imidazolium trifluoroacetate,N#CCCn1cc[nH+]c1.O=C([O-])C(F)(F)F,259.7
1-(2-cyanoethyl)imidazolium trifluoromethanesulfonate,N#CCCn1cc[nH+]c1.O=S(=O)([O-])C(F)(F)F,372.8
Guanidinium dicyanamide,N#C[N-]C#N.NC(N)=[NH2+],333.15
Guanidinium thiocyanate,N#C[S-].NC(N)=[NH2+],391.15
Guanidinium trifluoroacetate,NC(N)=[NH2+].O=C([O-])C(F)(F)F,428.15
Guanidinium formate,NC(N)=[NH2+].O=C[O-],364.15
Guanidinium nitrite,NC(N)=[NH2+].O=N[O-],363.15
Guanidinium dihydrogen phosphate,NC(N)=[NH2+].O=P([O-])(O)O,380.15
Guanidinium trifluoromethanesulfonate,NC(N)=[NH2+].O=S(=O)([O-])C(F)(F)F,429.15
Guanidinium hydrosulfate,NC(N)=[NH2+].O=S(=O)([O-])O,366.15
Guanidinium chloride,NC(N)=[NH2+].[Cl-],455.15
cesium dinitramide,N[N+](=O)[O-].N[N+](=O)[O-].[Cs],360.85
rubidium dinitramide,N[N+](=O)[O-].N[N+](=O)[O-].[Rb],379.1
"1-amino-1H-1,2,4-triazol-1-ium nitrate",N[NH+]1C=NC=N1.O=[N+]([O-])[O-],394.1
"1-amino-1H-1,2,4-triazol-1-ium perchlorate",N[NH+]1C=NC=N1.[O-][Cl+3]([O-])([O-])[O-],364.1
"1-amino-1, 2, 4-triazolium nitrate",N[n+]1cnc[nH]1.O=[N+]([O-])[O-],394.15
"1-amino-1, 2, 4-triazolium perchlorate",N[n+]1cnc[nH]1.[O-][Cl+3]([O-])([O-])[O-],364.15
"1,5-diamino-4H-1,2,3,4-tetrazolium perchlorate",Nc1[nH]nn[n+]1N.[O-][Cl+3]([O-])([O-])[O-],385.6
"2,3- diamino-1, 2, 4-triazolium 4,5-dinitroimidazolate",Nc1nc[nH+]n1N.O=[N+]([O-])c1nc[n-]c1[N+](=O)[O-],426.15
"1,5-diamino-1, 2, 4-triazolium nitrate",Nc1nc[nH][n+]1N.O=[N+]([O-])[O-],432.15
"1,5-diamino-1, 2, 4-triazolium perchlorate",Nc1nc[nH][n+]1N.[O-][Cl+3]([O-])([O-])[O-],411.15
"1-(2-bromoethyl)-4-amino-1,2,4-triazolium bromide",Nn1cn[n+](CCBr)c1.[Br-],404.15
"4-amino-1, 2, 4-triazolium 3-nitro-1, 2, 4-triazolate",Nn1cn[nH+]c1.O=C([O-])C1([N+](=O)[O-])N=CN=N1,337.15
"4-amino-1, 2, 4-triazolium 5-nitrotetrazolate",Nn1cn[nH+]c1.O=C([O-])C1([N+](=O)[O-])N=NN=N1,375.15
"4-amino-1,2,4-triazolium nitrate",Nn1cn[nH+]c1.O=[N+]([O-])[O-],342.125
"4-amino-1, 2, 4-triazolium 4,5-dinitroimidazolate",Nn1cn[nH+]c1.O=[N+]([O-])c1nc[n-]c1[N+](=O)[O-],410.15
"4-amino-1,2,4-triazolium perchlorate",Nn1cn[nH+]c1.[O-][Cl+3]([O-])([O-])[O-],356.125
di(prolinium) sulfate,O=C(O)[C@@H]1CCC[NH2+]1.O=C(O)[C@@H]1CCC[NH2+]1.O=S(=O)([O-])[O-],365.15
prolinium trifluoroacetate,O=C(O)[C@@H]1CCC[NH2+]1.O=C([O-])C(F)(F)F,351.15
2-pyrrolidinoethanol Benzoate-Benzoate,O=C(O)c1ccccc1.O=C(O)c1ccccc1.OCCN1CCCC1,301.15
caprolactam benzoate,O=C(O)c1ccccc1.O=C1CCCCCN1,304.15
butyrolactam benzoate,O=C(O)c1ccccc1.O=C1CCCN1,280.15
"2-pyrrolidinoethanol 2,5-dihydroxybenzoate",O=C(OCCN1CCCC1)c1cc(O)ccc1O,370.15
2-pyrrolidinoethanol Salicylate,O=C(OCCN1CCCC1)c1ccccc1O,322.15
"N-phenylpyridinium 4-nitro-1,2,3-triazolate",O=C([O-])C1([N+](=O)[O-])C=NN=N1.c1ccc(-[n+]2ccccc2)cc1,408.15
"N-phenylpyridinium 3,5-dinitro-1,2,4-triazolate",O=C([O-])C1([N+](=O)[O-])N=NC([N+](=O)[O-])=N1.c1ccc(-[n+]2ccccc2)cc1,440.15
2-azido-imidazolium 5-nitrotetrazolate,O=C([O-])C1([N+](=O)[O-])N=NN=N1.[N-]=[N+]=Nc1[nH]cc[nH+]1,385.15
"1,2,4-triazolium 5-Nitrotetrazolate",O=C([O-])C1([N+](=O)[O-])N=NN=N1.c1nc[nH+][nH]1,410.15
ethanolammonium glycolate,O=C([O-])CO.[NH3+]CCO,379.1
N-phenylpyridinium 5-nitro-benzotriazolate,O=C([O-])c1c([N+](=O)[O-])ccc2[nH]nnc12.c1ccc(-[n+]2ccccc2)cc1,348.15
caprolactam nitrate,O=C1CCCCCN1.O=[N+]([O-])O,318.15
butyrolactam nitrate,O=C1CCCN1.O=[N+]([O-])O,281.15
triethanolamine Formate,O=CO.OCCN(CCO)CCO,336.45
2-hydroxyethylammonium formate,O=C[O-].[NH3+]CCO,191.15
thallium methanoate,O=C[O-].[Tl+],374
triphenyl(4-chlorosulfonylbutyl)phosphonium trifluoromethanesulfonate,O=S(=O)(Cl)CCCC[P+](c1ccccc1)(c1ccccc1)c1ccccc1.O=S(=O)([O-])C(F)(F)F,363.15
cesium bis(fluorosulfonyl)amide,O=S(=O)(F)[N-]S(=O)(=O)F.[Cs+],386
potassium bis(fluorosulfonyl)amide,O=S(=O)(F)[N-]S(=O)(=O)F.[K+],377.7875
sodium bis(fluorosulfonyl)amide,O=S(=O)(F)[N-]S(=O)(=O)F.[Na+],385
rubidium bis(fluorosulfonyl)amide,O=S(=O)(F)[N-]S(=O)(=O)F.[Rb+],368
L-phenylalanine benzyl ester bis(perfluoroethylsulfonyl)imide,O=S(=O)([N-]S(=O)(=O)C(F)(F)C(F)(F)F)C(F)(F)C(F)(F)F.[NH3+][C@@H](Cc1ccccc1)C(=O)OCc1ccccc1,358.48
N-(3-Hydroxypropyl)pyridinium bis((trifluoromethyl)sulfonyl)imide,O=S(=O)([N-]S(=O)(=O)C(F)(F)F)C(F)(F)F.OCCC[n+]1ccccc1,201.15
lithium bis((trifluoromethyl)sulfonyl)amide,O=S(=O)([N-]S(=O)(=O)C(F)(F)F)C(F)(F)F.[Li+],507.86
L-phenylalanine benzyl ester bis(trifluoromethylsulfonyl)amide,O=S(=O)([N-]S(=O)(=O)C(F)(F)F)C(F)(F)F.[NH3+][C@@H](Cc1ccccc1)C(=O)OCc1ccccc1,353.94
natrium bis((trifluoromethyl)sulfonyl)imide,O=S(=O)([N-]S(=O)(=O)C(F)(F)F)C(F)(F)F.[Na+],317.15
imidazolium bis(trifluoromethanesulfonyl)imide,O=S(=O)([N-]S(=O)(=O)C(F)(F)F)C(F)(F)F.c1c[nH+]c[nH]1,344
"1,3-dibenzyl-1H-imidazol-3-ium bis((trifluoromethyl)sulfonyl)amide",O=S(=O)([N-]S(=O)(=O)C(F)(F)F)C(F)(F)F.c1ccc(Cn2cc[n+](Cc3ccccc3)c2)cc1,314.9
"1,3-dibenzylimidazolium trifluoromethanesulfonate",O=S(=O)([O-])C(F)(F)F.c1ccc(Cn2cc[n+](Cc3ccccc3)c2)cc1,346.3
benzothiazolium trifluoromethanesulfonate,O=S(=O)([O-])C(F)(F)F.c1ccc2sc[nH+]c2c1,401.15
Pyridinium hydrogensulfate,O=S(=O)([O-])O.c1cc[nH+]cc1,366.15
"2,2-dihydroxydiethylamine",O=[N+]([O-])OCC[NH2+]CCO[N+](=O)[O-].O=[N+]([O-])[O-],396.1
2-azido-1H-imidazol-1-ium nitrate,O=[N+]([O-])[O-].[N-]=[N+]=NC1=NC=C[NH2+]1,397.1
"3-azido-1-(2-azidoethyl)-1H-1,2,4-triazol-1-ium nitrate",O=[N+]([O-])[O-].[N-]=[N+]=NCC[NH+]1C=NC(N=[N+]=[N-])=N1,219.1
"1-(2-azidoethyl)-1H-1,2,4-triazol-1-ium nitrate",O=[N+]([O-])[O-].[N-]=[N+]=NCC[NH+]1C=NC=N1,372.1
"4-amino-1-(2-azidoethyl)-4H-1,2,4-triazol-1-ium nitrate",O=[N+]([O-])[O-].[N-]=[N+]=NCC[n+]1cn(N)cn1,343.125
"1-(2-azidoethyl)-1,2,4-triazolium nitrate",O=[N+]([O-])[O-].[N-]=[N+]=NCC[n+]1cnc[nH]1,372.15
2-azido-imidazolium  nitrate,O=[N+]([O-])[O-].[N-]=[N+]=Nc1[nH]cc[nH+]1,397.15
"3,5-diazido-1,2,4-triazolium nitrate",O=[N+]([O-])[O-].[N-]=[N+]=Nc1nc(N=[N+]=[N-])[nH+][nH]1,370.125
"3-azido-1,2,4-triazolium  nitrate",O=[N+]([O-])[O-].[N-]=[N+]=Nc1nc[nH+][nH]1,420.15
glycinium nitrate,O=[N+]([O-])[O-].[NH3+]CC(=O)O,384.15
8-phenyloctylammonium nitrate,O=[N+]([O-])[O-].[NH3+]CCCCCCCCc1ccccc1,345.1
ethanolammonium nitrate,O=[N+]([O-])[O-].[NH3+]CCO,315.585
"3,4-benzo-1-azacyclohexane nitrate",O=[N+]([O-])[O-].c1ccc2c(c1)CCC[NH2+]2,396.1
"N-phenylpyridinium 2,4-dinitroimidazolate",O=[N+]([O-])c1c[n-]c([N+](=O)[O-])n1.c1ccc(-[n+]2ccccc2)cc1,416.15
"1-(2-azidoethyl)-1,2,4-triazolium 4,5-dinitroimidazolate",O=[N+]([O-])c1nc[n-]c1[N+](=O)[O-].[N-]=[N+]=NCC[n+]1cnc[nH]1,358.15
"2-azido-imidazolium 4,5-dinitroimidazolate",O=[N+]([O-])c1nc[n-]c1[N+](=O)[O-].[N-]=[N+]=Nc1[nH]cc[nH+]1,400.15
"3-azido-1, 2, 4-triazolium 4,5-dinitroimidazolate",O=[N+]([O-])c1nc[n-]c1[N+](=O)[O-].[N-]=[N+]=Nc1nc[nH+][nH]1,365.15
"N-phenylpyridinium 4,5-dinitroimidazolate",O=[N+]([O-])c1nc[n-]c1[N+](=O)[O-].c1ccc(-[n+]2ccccc2)cc1,413.15
"1, 2, 4-triazolium 4,5-dinitroimidazolate",O=[N+]([O-])c1nc[n-]c1[N+](=O)[O-].c1nc[nH+][nH]1,429.15
1-(2-hydroxyethyl)pyridinium bromide,OCC[n+]1ccccc1.[Br-],375.8
"1,3-dibenzyl-4-(2-hydroxyethyl)imidazolium bromide",OCCc1cn(Cc2ccccc2)c[n+]1Cc1ccccc1.[Br-],408.15
1-(3-phenoxypropyl)pyridazin-1-ium bromide,[Br-].c1ccc(OCCC[n+]2ccccn2)cc1,464.1
1-(2-phenoxyethyl)pyridazin-1-ium bromide,[Br-].c1ccc(OCC[n+]2ccccn2)cc1,433.6
glycinium chloride,[Cl-].[NH3+]CC(=O)O,459.15
"1,3-dibenzylimidazolium chloride",[Cl-].c1ccc(Cn2cc[n+](Cc3ccccc3)c2)cc1,335.65
tetraphenylphosphonium chloride,[Cl-].c1ccc([P+](c2ccccc2)(c2ccccc2)c2ccccc2)cc1,548.375
ammonium fluoride,[F-].[NH4+],383.1
2-azido-1H-imidazol-1-ium perchlorate,[N-]=[N+]=NC1=NC=C[NH2+]1.[O-][Cl+3]([O-])([O-])[O-],389.1
"3-azido-1H-1,2,4-triazol-1-ium perchlorate",[N-]=[N+]=NC1=N[NH2+]C=N1.[O-][Cl+3]([O-])([O-])[O-],396.1
"1-(2-azidoethyl)-1H-1,2,4-triazol-1-ium perchlorate",[N-]=[N+]=NCC[NH+]1C=NC=N1.[O-][Cl+3]([O-])([O-])[O-],217.1
"4-amino-1-(2-azidoethyl)-4H-1,2,4-triazol-1-ium perchlorate",[N-]=[N+]=NCC[n+]1cn(N)cn1.[O-][Cl+3]([O-])([O-])[O-],227.1
2-azido-imidazolium perchlorate,[N-]=[N+]=Nc1[nH]cc[nH+]1.[O-][Cl+3]([O-])([O-])[O-],389.15
hydroxylammonium perchlorate,[NH3+]O.[O-][Cl+3]([O-])([O-])[O-],361.6