Name,Structure Graph ID,ID,Ea (J/mol),A,RT_conductivity (S/m),SMILES,Cation Name,Anion Name,Cation SMILES,Anion SMILES,reference,source
2-methylpyridinium trifluoroacetate,AAnrhH,vxitG,25978.7615,10821.54678,0.303916296,Cc1cccc[nH+]1.O=C([O-])C(F)(F)F,2-methylpyridinium,trifluoroacetate,Cc1cccc[nH+]1,C(=O)(C(F)(F)F)[O-],"Hasani, M.; Amin, S. A.; Yarger, J. L.; Davidowski, S. K.; Angell, C. A. (2019) J. Phys. Chem. B 123(8), 1815-1821.",synthesized by the authors
2-methylpyridinium bis(trifluoromethanesulfonyl)imide,ABTyYr,oDrHM,27953.11317,26503.73639,0.335630219,Cc1cccc[nH+]1.O=S(=O)([N-]S(=O)(=O)C(F)(F)F)C(F)(F)F,2-methylpyridinium,bis(trifluoromethanesulfonyl)imide,Cc1cccc[nH+]1,C(F)(F)(F)S(=O)(=O)NS(=O)(=O)C(F)(F)F,"Hasani, M.; Amin, S. A.; Yarger, J. L.; Davidowski, S. K.; Angell, C. A. (2019) J. Phys. Chem. B 123(8), 1815-1821.",synthesized by the authors
1-ethyl-3-methylimidazolium bis((trifluoromethyl)sulfonyl)imide,ABXNZH,QELjP,26009.71081,23497.60673,0.651727268,CCN1C=C[N+](=C1)C.C(F)(F)(F)S(=O)(=O)[N-]S(=O)(=O)C(F)(F)F,1-ethyl-3-methylimidazolium,bis((trifluoromethyl)sulfonyl)imide,CCN1C=C[N+](=C1)C,CCCCN1C=C[N+](=C1C)C.C(F)(F)(F)S(=O)(=O)[N-]S(=O)(=O)C(F)(F)F,"Le, L. T.M.; Vo, T. D.; Ngo, K. H.P.; Okada, S.; Alloin, F.; Garg, A.; Le, P. M.L. (2018) J. Mol. Liq. 271, 769-777.",synthesized by the authors
N-butyl-N-methylpiperidinium tricyanomethanide,AAvTzM,nDEXF,28939.89396,46913.53468,0.398993642,CCCC[N+]1(C)CCCCC1.N#C[C-](C#N)C#N,N-butyl-N-methylpiperidinium,tricyanomethanide,CCCC[N+]1(C)CCCCC1,C(=C(C#N)C#N)=[N-],"Martins, V. L.; Rennie, A. J. R.; Torresi, R. M.; Hall, P. J. (2017) Phys. Chem. Chem. Phys. 19(25), 16867-16874.",synthesized by the authors
1-butyl-1-methylpyrrolidinium tricyanomethanide,AAsjdp,NEDnp,22829.18792,8315.873086,0.832117434,CCCC[N+]1(CCCC1)C.C(=C(C#N)C#N)=[N-],1-butyl-1-methylpyrrolidinium,tricyanomethanide,CCCC[N+]1(CCCC1)C,C(=C(C#N)C#N)=[N-],"Martins, V. L.; Rennie, A. J. R.; Torresi, R. M.; Hall, P. J. (2017) Phys. Chem. Chem. Phys. 19(25), 16867-16874.",commercial source
1-hexyl-3-methylimidazolium bis[(trifluoromethyl)sulfonyl]imide,ABiCtA,QhhVQ,30732.13196,48847.90774,0.201608947,CCCCCCn1cc[n+](C)c1.O=S(=O)([N-]S(=O)(=O)C(F)(F)F)C(F)(F)F,1-hexyl-3-methylimidazolium,bis[(trifluoromethyl)sulfonyl]imide,CCCCCCN1C=C[N+](=C1)C,O=S(=O)([N-]S(=O)(=O)C(F)(F)F)C(F)(F)F,"Morales-Ugarte, J. E.; Santini, C. C.; Bouchet, R.; Benayad, A. (2020) J. Phys. Chem. B 124(35), 7625-7635.",synthesized by the authors
"1-hexyl-2,3-dimethylimidazolium bis[(trifluoromethyl)sulfonyl]imide",ABkmDU,OSUka,35915.57246,233708.3248,0.119175779,CCCCCCn1cc[n+](C)c1C.O=S(=O)([N-]S(=O)(=O)C(F)(F)F)C(F)(F)F,"1-hexyl-2,3-dimethylimidazolium",bis[(trifluoromethyl)sulfonyl]imide,CCCCCCN1C=C[N+](=C1C)C.F[P-](F)(F)(F)(F)F,O=S(=O)([N-]S(=O)(=O)C(F)(F)F)C(F)(F)F,"Morales-Ugarte, J. E.; Santini, C. C.; Bouchet, R.; Benayad, A. (2020) J. Phys. Chem. B 124(35), 7625-7635.",synthesized by the authors
1-hexyl-3-methylimidazolium bis(fluorosulfonyl)amide,ABOpBF,hAxwy,26989.46459,21139.62117,0.394897583,CCCCCC[n+]1ccn(C)c1.O=S(=O)(F)[N-]S(=O)(=O)F,1-hexyl-3-methylimidazolium,bis(fluorosulfonyl)amide,CCCCCCN1C=C[N+](=C1)C,O=S(=O)(F)[N-]S(=O)(=O)F,"Morales-Ugarte, J. E.; Santini, C. C.; Bouchet, R.; Benayad, A. (2020) J. Phys. Chem. B 124(35), 7625-7635.",synthesized by the authors
1-butyl-3-methylimidazolium salicylate,ABBHCu,gFeDc,38848.1205,279918.9442,0.04372777,CCCCN1C=C[N+](=C1)C.C1=CC=C(C(=C1)C(=O)O)[O-],1-butyl-3-methylimidazolium,salicylate,CCCCN1C=C[N+](=C1)C,C1=CC=C(C(=C1)C(=O)O)[O-],"Pandit, S. A.; Rather, M. A.; Bhat, S. A.; Rather, G. M.; Bhat, M. A. (2016) J. Solution Chem. 45, 1641-1658.",synthesized by the authors
1-butyl-3-methylimidazolium acetate,AAmGQS,JxVcP,44812.62309,4165045.267,0.058661205,CCCCN1C=C[N+](=C1)C.CC(=O)[O-],1-butyl-3-methylimidazolium,acetate,CCCCN1C=C[N+](=C1)C,CC(=O)[O-],"Pandit, S. A.; Rather, M. A.; Bhat, S. A.; Rather, G. M.; Bhat, M. A. (2016) J. Solution Chem. 45, 1641-1658.",synthesized by the authors
1-butyl-3-methylimidazolium tetrafluoroborate,AArYBF,wiqQz,33871.8166,311145.9304,0.361866519,[B-](F)(F)(F)F.CCCCN1C=C[N+](=C1)C,1-butyl-3-methylimidazolium,tetrafluoroborate,CCCCN1C=C[N+](=C1)C,[B-](F)(F)(F)F,"Pandit, S. A.; Rather, M. A.; Bhat, S. A.; Rather, G. M.; Bhat, M. A. (2016) J. Solution Chem. 45, 1641-1658.",synthesized by the authors
1-butyl-3-methylimidazolium methyl sulfate,AAwHNg,ZJDCV,38450.47853,596867.6888,0.109463882,CCCCN1C=C[N+](=C1)C.COS(=O)(=O)[O-],1-butyl-3-methylimidazolium,methyl,CCCCN1C=C[N+](=C1)C,COS(=O)(=O)[O-],"Pandit, S. A.; Rather, M. A.; Bhat, S. A.; Rather, G. M.; Bhat, M. A. (2016) J. Solution Chem. 45, 1641-1658.",commercial source
1-butyl-3-methylimidazolium thiocyanate,AAlxZE,iWXZx,24382.3248,12767.68804,0.682772598,CCCCN1C=C[N+](=C1)C.C(#N)[S-],1-butyl-3-methylimidazolium,thiocyanate,CCCCN1C=C[N+](=C1)C,C(#N)[S-],"Pandit, S. A.; Rather, M. A.; Bhat, S. A.; Rather, G. M.; Bhat, M. A. (2016) J. Solution Chem. 45, 1641-1658.",synthesized by the authors
N-butyltropinium glycinate,ABATYq,khKXa,71212.61028,338798331.6,0.000113067,NCC(=O)[O-].[H][C@]12C=C[C@]([H])(C[C@H](O)C1)[N+]2(C)CCCC,N-butyltropinium,glycinate,NCC(=O)[O-],C(C(=O)[O-])N,"Peng, L.; Wang, Z.; Zhu, H.; Zeng, T.; Zhou, W.; Yao, S.; Song, H. (2021) J. Mol. Liq. 342, 116938.",synthesized by the authors
N-butyltropinium L-alaninate,ABDEVt,pPGun,77816.71432,3692526219.0,8.58e-05,C[C@H](N)C(=O)[O-].[H][C@]12CC[C@]([H])(C[C@H](O)C1)[N+]2(C)CCCC,N-butyltropinium,L-alaninate,C[C@H](N)C(=O)[O-],CC(C(=O)[O-])N,"Peng, L.; Wang, Z.; Zhu, H.; Zeng, T.; Zhou, W.; Yao, S.; Song, H. (2021) J. Mol. Liq. 342, 116938.",synthesized by the authors
N-butyltropinium L-serinate,ABGIXZ,SVNrg,68256.22915,57840542.82,6.36e-05,N[C@@H](CO)C(=O)[O-].[H][C@]12CC[C@]([H])(C[C@H](O)C1)[N+]2(C)CCCC,N-butyltropinium,L-serinate,N[C@@H](CO)C(=O)[O-],C(C(C(=O)[O-])N)O,"Peng, L.; Wang, Z.; Zhu, H.; Zeng, T.; Zhou, W.; Yao, S.; Song, H. (2021) J. Mol. Liq. 342, 116938.",synthesized by the authors
N-butyltropinium L-phenylalaninate,ABRlse,lbYRq,79310.58276,3096517443.0,3.94e-05,N[C@@H](Cc1ccccc1)C(=O)[O-].[H][C@]12CC[C@]([H])(C[C@H](O)C1)[N+]2(C)CCCC,N-butyltropinium,L-phenylalaninate,N[C@@H](Cc1ccccc1)C(=O)[O-],C1=CC=C(C=C1)CC(C(=O)[O-])N,"Peng, L.; Wang, Z.; Zhu, H.; Zeng, T.; Zhou, W.; Yao, S.; Song, H. (2021) J. Mol. Liq. 342, 116938.",synthesized by the authors
1-ethyl-3-methylimidazolium acetate,AAgmaR,Pptmv,33292.83209,208238.8399,0.30590414,CCN1C=C[N+](=C1)C.CC(=O)[O-],1-ethyl-3-methylimidazolium,acetate,CCN1C=C[N+](=C1)C,CC(=O)[O-],"Queiros, C.S.G.P.; Paredes, X.; Avelino, T.F.S.; Bastos, D.E.N.; Ferreira, M.; Santos, F.J.V.; Santos, A.F.; Lopes, M.L.M.; Lourenco, M.J.V.; Pereira, H.; Castro, C.A. Nieto de (2020) J. Mol. Liq. 297, 111925.",
"1-hexyl-2,3-dimethylimidazolium bis[(trifluoromethyl)sulfonyl]imide",ABkmDU,wxfyr,34076.48426,117079.2832,0.125373605,CCCCCCn1cc[n+](C)c1C.O=S(=O)([N-]S(=O)(=O)C(F)(F)F)C(F)(F)F,"1-hexyl-2,3-dimethylimidazolium",bis[(trifluoromethyl)sulfonyl]imide,CCCCCCN1C=C[N+](=C1C)C.F[P-](F)(F)(F)(F)F,O=S(=O)([N-]S(=O)(=O)C(F)(F)F)C(F)(F)F,"Ren, R.; Zuo, Y.; Zhou, Q.; Zhang, H.; Zhang, S. (2011) J. Chem. Eng. Data 56(1), 27-30.",synthesized by the authors
L-(+)-N-butylleucine ethyl ester tetrafluoroborate,ABGPdE,wlxUt,35768.04875,87629.96983,0.047425613,CCCC[NH2+][C@@H](CC(C)C)C(=O)OCC.F[B-](F)(F)F,L-(+)-N-butylleucine,ethyl,CCCC[NH2+][C@@H](CC(C)C)C(=O)OCC,C[CH2],"Tian, T.; Hu, X.; Guan, P.; Tang, Y.; Wang, H. (2018) J. Wuhan Univ. of Technol. Mater. Sci. Ed. 33(1), 249-255.",synthesized by the authors
1-butyl-3-methylimidazolium bis(trifluoromethylsulfonyl)imide,ABchwx,DRKSw,23572.21964,5411.492571,0.401248172,CCCCN1C=C[N+](=C1)C.C(F)(F)(F)S(=O)(=O)[N-]S(=O)(=O)C(F)(F)F,1-butyl-3-methylimidazolium,bis(trifluoromethylsulfonyl)imide,CCCCN1C=C[N+](=C1)C,C(F)(F)(F)S(=O)(=O)NS(=O)(=O)C(F)(F)F,"Vranes, M.; Zec, N.; Tot, A.; Papovic, S.; Dozic, S.; Gadzuric, S. (2014) J. Chem. Thermodyn. 68, 98-108.",commercial source
bis(diethylamino)(dimethylamino)cyclopropenium bis(trifluoromethanesulfonyl)amide,ABtBdP,QJaVO,22559.76424,1750.75576,0.195301665,CCN(CC)c1c(N(CC)CC)[c+]1N(C)C.O=S(=O)([N-]S(=O)(=O)C(F)(F)F)C(F)(F)F,bis(diethylamino)(dimethylamino)cyclopropenium,bis(trifluoromethanesulfonyl)amide,CCN(CC)c1c(N(CC)CC)[c+]1N(C)C,O=S(=O)([N-]S(=O)(=O)C(F)(F)F)C(F)(F)F,"Walst, K. J.; Yunis, R.; Bayley, P. M.; MacFarlane, D. R.; Ward, C. J.; Wang, R.; Curnow, O. J. (2015) RSC Adv. 5(49), 39565-39579.",synthesized by the authors
bis(dimethylamino)(butylmethylamino)cyclopropenium bis(trifluoromethanesulfonyl)amide,ABqQyG,WchRd,25492.28538,8983.732562,0.307010432,CCCCN(C)[c+]1c(N(C)C)c1N(C)C.O=S(=O)([N-]S(=O)(=O)C(F)(F)F)C(F)(F)F,bis(dimethylamino)(butylmethylamino)cyclopropenium,bis(trifluoromethanesulfonyl)amide,CCCCN(C)[c+]1c(N(C)C)c1N(C)C,O=S(=O)([N-]S(=O)(=O)C(F)(F)F)C(F)(F)F,"Walst, K. J.; Yunis, R.; Bayley, P. M.; MacFarlane, D. R.; Ward, C. J.; Wang, R.; Curnow, O. J. (2015) RSC Adv. 5(49), 39565-39579.",synthesized by the authors
bis(diethylamino)(butylmethylamino)cyclopropenium bis(trifluoromethanesulfonyl)amide,ACBFNg,TXPkE,23389.12229,1946.724157,0.155410183,CCCCN(C)[c+]1c(N(CC)CC)c1N(CC)CC.O=S(=O)([N-]S(=O)(=O)C(F)(F)F)C(F)(F)F,bis(diethylamino)(butylmethylamino)cyclopropenium,bis(trifluoromethanesulfonyl)amide,CCCCN(C)[c+]1c(N(CC)CC)c1N(CC)CC,O=S(=O)([N-]S(=O)(=O)C(F)(F)F)C(F)(F)F,"Walst, K. J.; Yunis, R.; Bayley, P. M.; MacFarlane, D. R.; Ward, C. J.; Wang, R.; Curnow, O. J. (2015) RSC Adv. 5(49), 39565-39579.",synthesized by the authors
bis(dimethylamino)(methylpropylamino)cyclopropenium bis(trifluoromethanesulfonyl)amide,ABngjd,dILlh,25386.65343,9928.371535,0.354063604,CCCN(C)[c+]1c(N(C)C)c1N(C)C.O=S(=O)([N-]S(=O)(=O)C(F)(F)F)C(F)(F)F,bis(dimethylamino)(methylpropylamino)cyclopropenium,bis(trifluoromethanesulfonyl)amide,CCCN(C)[c+]1c(N(C)C)c1N(C)C,O=S(=O)([N-]S(=O)(=O)C(F)(F)F)C(F)(F)F,"Walst, K. J.; Yunis, R.; Bayley, P. M.; MacFarlane, D. R.; Ward, C. J.; Wang, R.; Curnow, O. J. (2015) RSC Adv. 5(49), 39565-39579.",synthesized by the authors
N-methyl-N-propylpropan-1-aminium trifluoromethanesulfonate,AAzAsH,sBZHI,19392.42435,1030.937536,0.412702929,CCC[NH+](C)CCC.O=S(=O)([O-])C(F)(F)F,N-methyl-N-propylpropan-1-aminium,trifluoromethanesulfonate,CCC[NH+](C)CCC,C(F)(F)(F)S(=O)(=O)[O-],"Yasuda, T.; Kinoshita, H.; Miran, M. S.; Tsuzuki, S.; Watanabe, M. (2013) J. Chem. Eng. Data 58(10), 2724-2732.",synthesized by the authors
N-allyl-N-methylprop-2-en-1-aminium trifluoromethanesulfonate,AAyMEa,coBJa,18844.968,964.7793469,0.481669045,C=CC[NH+](C)CC=C.O=S(=O)([O-])C(F)(F)F,N-allyl-N-methylprop-2-en-1-aminium,trifluoromethanesulfonate,C=CC[NH+](C)CC=C,C(F)(F)(F)S(=O)(=O)[O-],"Yasuda, T.; Kinoshita, H.; Miran, M. S.; Tsuzuki, S.; Watanabe, M. (2013) J. Chem. Eng. Data 58(10), 2724-2732.",synthesized by the authors
"N,N-diethylpropan-1-aminium trifluoromethanesulfonate",AAzAdE,BgEEv,18997.48415,823.7109347,0.386700212,CCC[NH+](CC)CC.O=S(=O)([O-])C(F)(F)F,"N,N-diethylpropan-1-aminium",trifluoromethanesulfonate,CCC[NH+](CC)CC,C(F)(F)(F)S(=O)(=O)[O-],"Yasuda, T.; Kinoshita, H.; Miran, M. S.; Tsuzuki, S.; Watanabe, M. (2013) J. Chem. Eng. Data 58(10), 2724-2732.",synthesized by the authors
"N,N-diethylprop-2-en-1-aminium trifluoromethanesulfonate",AAygCq,fUKGD,18965.09214,891.7102957,0.424129529,C=CC[NH+](CC)CC.O=S(=O)([O-])C(F)(F)F,"N,N-diethylprop-2-en-1-aminium",trifluoromethanesulfonate,C=CC[NH+](CC)CC,C(F)(F)(F)S(=O)(=O)[O-],"Yasuda, T.; Kinoshita, H.; Miran, M. S.; Tsuzuki, S.; Watanabe, M. (2013) J. Chem. Eng. Data 58(10), 2724-2732.",synthesized by the authors
"N,N-dimethylpropan-1-aminium trifluoromethanesulfonate",AAtgky,Lzlqz,16705.48237,770.3333665,0.911679039,CCC[NH+](C)C.O=S(=O)([O-])C(F)(F)F,"N,N-dimethylpropan-1-aminium",trifluoromethanesulfonate,CCC[NH+](C)C,C(F)(F)(F)S(=O)(=O)[O-],"Yasuda, T.; Kinoshita, H.; Miran, M. S.; Tsuzuki, S.; Watanabe, M. (2013) J. Chem. Eng. Data 58(10), 2724-2732.",synthesized by the authors
diethylmethylammonium trifluoromethanesulfonate,AAtgFT,DZwHX,15670.90249,489.8172597,0.879949977,CC[NH+](C)CC.C(F)(F)(F)S(=O)(=O)[O-],diethylmethylammonium,trifluoromethanesulfonate,CC[NH+](C)CC,C(F)(F)(F)S(=O)(=O)[O-],"Yasuda, T.; Kinoshita, H.; Miran, M. S.; Tsuzuki, S.; Watanabe, M. (2013) J. Chem. Eng. Data 58(10), 2724-2732.",synthesized by the authors
1-butyronitrile-3-methylimidazolium tetrafluoroborate,AAteQp,jXwOF,47427.42084,24265380.97,0.11901457,Cn1cc[n+](CCCC#N)c1.F[B-](F)(F)F,1-butyronitrile-3-methylimidazolium,tetrafluoroborate,Cn1cc[n+](CCCC#N)c1,[B-](F)(F)(F)F,"Zhang, Qingguo; Liu, Dongye; Li, Qing; Zhang, Xinyuan; Wei, Ying (2018) J. Chem. Eng. Data 63(5), 1256-1265.",commercial source
"1-butyl-2,3-dimethylimidazolium thiocyanate",AAohiD,PKiKy,43856.53483,10079719.97,0.20877979,CCCCN1C=C[N+](=C1C)C.C(#N)[S-],"1-butyl-2,3-dimethylimidazolium",thiocyanate,CCCCN1C=C[N+](=C1C)C,C(#N)[S-],"Zhang, Qingguo; Xu, Tongtong; Zhang, Xinyuan; Yang, Huige; Zhang, Wenbo (2018) J. Chem. Eng. Data 63(5), 1408-1418.",synthesized by the authors
"1,2-dimethyl-3-propylimidazolium thiocyanate",AAlxvi,QKBga,35843.91452,854631.2146,0.448587528,CCC[n+]1ccn(C)c1C.N#C[S-],"1,2-dimethyl-3-propylimidazolium",thiocyanate,CCC[n+]1ccn(C)c1C,C(#N)[S-],"Zhang, Qingguo; Xu, Tongtong; Zhang, Xinyuan; Yang, Huige; Zhang, Wenbo (2018) J. Chem. Eng. Data 63(5), 1408-1418.",synthesized by the authors
3-(3-cyanopropyl)-1-methylimidazolium trifluoromethanesulfonate,ABFcpW,zHrRA,42959.07538,1488846.809,0.044292159,Cn1cc[n+](CCCC#N)c1.O=S(=O)([O-])C(F)(F)F,3-(3-cyanopropyl)-1-methylimidazolium,trifluoromethanesulfonate,Cn1cc[n+](CCCC#N)c1,C(F)(F)(F)S(=O)(=O)[O-],"Zhang, Q.; Liu, D.; Li, Q.; Zhang, X.; Wei, Y.; Lang, X. (2018) J. Mol. Liq. 268, 770-780.",commercial source
3-(3-cyanopropyl)-1-methylimidazolium bis(fluorosulfonyl)amide,ABLbxS,kmhEe,38106.23822,852458.6837,0.179629543,Cn1cc[n+](CCCC#N)c1.O=S(=O)(F)[N-]S(=O)(=O)F,3-(3-cyanopropyl)-1-methylimidazolium,bis(fluorosulfonyl)amide,Cn1cc[n+](CCCC#N)c1,O=S(=O)(F)[N-]S(=O)(=O)F,"Zhang, Q.; Liu, D.; Li, Q.; Zhang, X.; Wei, Y.; Lang, X. (2018) J. Mol. Liq. 268, 770-780.",commercial source
3-ethyl-1-methyl-1H-imidazolium L-serinate,AApUki,WEnqo,42098.62905,1636540.382,0.068889911,CCN1C=C[N+](=C1)C.C(C(C(=O)[O-])N)O,3-ethyl-1-methyl-1H-imidazolium,L-serinate,CCN1C=C[N+](=C1)C,C(C(C(=O)[O-])N)O,"Zheng, Ling; Pan, Yi; Ji, Hong-Xiang; Ma, Xiao-Xue; Xing, Nan-Nan; Guan, Wei (2016) Acta Phys. Chim. Sin. 32(11), 2663-2670.",synthesized by the authors
1-cyclopentyl-3-butylimidazolium bis((trifluoromethyl)sulfonyl)imide,ABnCNg,qDiuS,27469.20558,13357.64128,0.205620016,CCCCn1cc[n+](C2CCCC2)c1.O=S(=O)([N-]S(=O)(=O)C(F)(F)F)C(F)(F)F,1-cyclopentyl-3-butylimidazolium,bis((trifluoromethyl)sulfonyl)imide,CCCCn1cc[n+](C2CCCC2)c1,CCCCN1C=C[N+](=C1C)C.C(F)(F)(F)S(=O)(=O)[N-]S(=O)(=O)C(F)(F)F,"Andresova, A.; Storch, J.; Traikia, M.; Wagner, Z.; Bendova, M.; Husson, P. (2014) Fluid Phase Equilib. 371, 41-49.",synthesized by the authors
1-butyl-3-isopentylimidazolium bis((trifluoromethyl)sulfonyl)amide,ABnWCx,XespC,28801.67,16858.68468,0.151603296,CCCCn1cc[n+](CCC(C)C)c1.O=S(=O)([N-]S(=O)(=O)C(F)(F)F)C(F)(F)F,1-butyl-3-isopentylimidazolium,bis((trifluoromethyl)sulfonyl)amide,CCCCn1cc[n+](CCC(C)C)c1,O=S(=O)([N-]S(=O)(=O)C(F)(F)F)C(F)(F)F,"Andresova, A.; Storch, J.; Traikia, M.; Wagner, Z.; Bendova, M.; Husson, P. (2014) Fluid Phase Equilib. 371, 41-49.",synthesized by the authors
1-ethyl-3-methylimidazolium methanesulfonate,AAniqB,sfqJj,32769.13983,152808.1571,0.277282318,CCN1C=C[N+](=C1)C.CS(=O)(=O)[O-],1-ethyl-3-methylimidazolium,methanesulfonate,CCN1C=C[N+](=C1)C,CS(=O)(=O)[O-],"Bioucas, Francisco E. B.; Queiros, Carla S. G. P.; Lozano-Martin, Daniel; Ferreira, M. S.; Paredes, Xavier; Santos, Angela F.; Santos, Fernando J. V.; Lopes, Manuel L. M.; Lampreia, Isabel M. S.; Lourenco, Maria Jose V.; Nieto de Castro, Carlos A.; Massonne, Klemens (2022) Ind. Eng. Chem. Res. 61(5), 2280-2305.",commercial source
1-ethyl-3-methylimidazolium trifluoromethanesulfonate,AAyCVz,JfwGz,23352.9594,10231.74073,0.82882033,CCN1C=C[N+](=C1)C.C(F)(F)(F)S(=O)(=O)[O-],1-ethyl-3-methylimidazolium,trifluoromethanesulfonate,CCN1C=C[N+](=C1)C,C(F)(F)(F)S(=O)(=O)[O-],"Bonhote, P.; Dias, A.-P.; Papageorgiou, N.; Kalyanasundaram, K.; Gratzel, M. (1996) Inorg. Chem. 35(5), 1168-1178.",synthesized by the authors
1-butyl-3-methylimidazolium hexafluorophosphate,ABChJv,OBGOY,30716.66716,42597.81225,0.176913346,CCCCN1C=C[N+](=C1)C.F[P-](F)(F)(F)(F)F,1-butyl-3-methylimidazolium,hexafluorophosphate,CCCCN1C=C[N+](=C1)C,F[P-](F)(F)(F)(F)F,"Chaudhary, G. R.; Bansal, S.; Mehta, S. K.; Ahluwalia, A. S. (2012) J. Chem. Thermodyn. 50, 63-70.",commercial source
1-butyl-3-methylimidazolium tetrafluoroborate,AArYBF,nGyII,27382.65771,30452.44485,0.485423897,[B-](F)(F)(F)F.CCCCN1C=C[N+](=C1)C,1-butyl-3-methylimidazolium,tetrafluoroborate,CCCCN1C=C[N+](=C1)C,[B-](F)(F)(F)F,"Chaudhary, G. R.; Bansal, S.; Mehta, S. K.; Ahluwalia, A. S. (2014) J. Solution Chem. 43, 340-359.",commercial source
"1,1,3,3-tetramethyl-4-ethylguanidinium bromotrichloroferrate(III)",ABWPZE,ZIsja,4389.031687,0.894130853,0.152206504,CC[NH+]=C(N(C)C)N(C)C.Cl[Fe-](Cl)(Cl)Br,"1,1,3,3-tetramethyl-4-ethylguanidinium",bromotrichloroferrate(III),CC[NH+]=C(N(C)C)N(C)C,Cl[Fe-](Cl)(Cl)Br,"Dai, X.; Li, J.; Ma, Y.; Lan, X.; Song, H. (2018) J. Mol. Liq. 254, 226-230.",synthesized by the authors
"1,1,3,3-tetramethyl-4-hexylguanidinium bromotrichloroferrate(III)",ABhEEj,hqugc,18802.25089,135.6181309,0.068884677,CCCCCC[NH+]=C(N(C)C)N(C)C.Cl[Fe-](Cl)(Cl)Br,"1,1,3,3-tetramethyl-4-hexylguanidinium",bromotrichloroferrate(III),CCCCCC[NH+]=C(N(C)C)N(C)C,Cl[Fe-](Cl)(Cl)Br,"Dai, X.; Li, J.; Ma, Y.; Lan, X.; Song, H. (2018) J. Mol. Liq. 254, 226-230.",synthesized by the authors
"1,1,3,3-tetramethyl-4-octylguanidinium bromotrichloroferrate(III)",ABmZVk,VgjVq,20507.52859,220.8973754,0.056393244,CCCCCCCC[NH+]=C(N(C)C)N(C)C.Cl[Fe-](Cl)(Cl)Br,"1,1,3,3-tetramethyl-4-octylguanidinium",bromotrichloroferrate(III),CCCCCCCC[NH+]=C(N(C)C)N(C)C,Cl[Fe-](Cl)(Cl)Br,"Dai, X.; Li, J.; Ma, Y.; Lan, X.; Song, H. (2018) J. Mol. Liq. 254, 226-230.",synthesized by the authors
1-butyl-3-ethylimidazolium bromide,AAsrvt,UQvnT,52493.62348,81133002.44,0.051546701,CCCC[N+]1=CN(C=C1)CC.[Br-],1-butyl-3-ethylimidazolium,bromide,CCCC[N+]1=CN(C=C1)CC,[Br-],"Dozic, S.; Zec, N.; Tot, A.; Papovic, S.; Pavlovic, K.; Gadzuric, S.; Vranes, M. (2016) J. Chem. Thermodyn. 93, 52-59.",synthesized by the authors
"N-ethyl-N,N-dimethyl-1-propanaminium 1,1,1-trifluoro-N-[(trifluoromethyl)sulfonyl]methanesulfonamide",ABYLaO,ZgPWK,14032.66246,70.5838184,0.245556963,CCC[N+](C)(C)CC.O=S(=O)([N-]S(=O)(=O)C(F)(F)F)C(F)(F)F,"N-ethyl-N,N-dimethyl-1-propanaminium","1,1,1-trifluoro-N-[(trifluoromethyl)sulfonyl]methanesulfonamide",CCC[N+](C)(C)CC,C(F)(F)(F)S(=O)(=O)NS(=O)(=O)C(F)(F)F,"Ibrahim, M. H.; Hayyan, M.; Hashim, M. A.; Hayyan, A.; Hadj-Kali, M. K. (2016) Fluid Phase Equilib. 427, 18-26.",commercial source
"N-ethyl-N,N-dimethyl-2-methoxyethylammonium bis(trifluoromethylsulfonyl)imide",ABbPbH,zXcnj,12294.58894,40.41301897,0.28345404,CC[N+](C)(C)CCOC.C(F)(F)(F)S(=O)(=O)[N-]S(=O)(=O)C(F)(F)F,"N-ethyl-N,N-dimethyl-2-methoxyethylammonium",bis(trifluoromethylsulfonyl)imide,CC[N+](C)(C)CCOC,C(F)(F)(F)S(=O)(=O)NS(=O)(=O)C(F)(F)F,"Ibrahim, M. H.; Hayyan, M.; Hashim, M. A.; Hayyan, A.; Hadj-Kali, M. K. (2016) Fluid Phase Equilib. 427, 18-26.",commercial source
1-(2-methoxyethyl)-1-methylpyrrolidinium bis((trifluoromethyl)sulfonyl)amide,ABdfoj,kLCYH,10742.23624,28.16276621,0.369498112,COCC[N+]1(C)CCCC1.O=S(=O)([N-]S(=O)(=O)C(F)(F)F)C(F)(F)F,1-(2-methoxyethyl)-1-methylpyrrolidinium,bis((trifluoromethyl)sulfonyl)amide,COCC[N+]1(C)CCCC1,O=S(=O)([N-]S(=O)(=O)C(F)(F)F)C(F)(F)F,"Ibrahim, M. H.; Hayyan, M.; Hashim, M. A.; Hayyan, A.; Hadj-Kali, M. K. (2016) Fluid Phase Equilib. 427, 18-26.",commercial source