Name,Structure Graph ID,ID,Ea (J/mol),A,RT_conductivity (S/m),SMILES,Cation Name,Anion Name,Cation SMILES,Anion SMILES,reference,source
1-butyl-4-methylpyridinium bis((trifluoromethyl)sulfonyl)amide,ABenmT,jFNdG,29416.45788,46142.0068,0.32379435,CCCC[n+]1ccc(C)cc1.O=S(=O)([N-]S(=O)(=O)C(F)(F)F)C(F)(F)F,1-butyl-4-methylpyridinium,bis((trifluoromethyl)sulfonyl)amide,CCCC[N+]1=CC=C(C=C1)C,O=S(=O)([N-]S(=O)(=O)C(F)(F)F)C(F)(F)F,"Liu, Q.-S.; Li, P.-P.; Welz-Biermann, U.; Liu, X.-X.; Chen, J. (2012) J. Chem. Eng. Data 57(11), 2999-3004.",synthesized by the authors
1-methyl-3-propylimidazolium bis[(trifluoromethyl)sulfonyl]imide,ABZxGx,EHLWS,24512.10635,10610.39741,0.538464977,CCC[n+]1ccn(C)c1.O=S(=O)([N-]S(=O)(=O)C(F)(F)F)C(F)(F)F,1-methyl-3-propylimidazolium,bis[(trifluoromethyl)sulfonyl]imide,CCC[n+]1ccn(C)c1,O=S(=O)([N-]S(=O)(=O)C(F)(F)F)C(F)(F)F,"Liu, Q.; Zhao, L.; Ma, L.; Chu, J.; Wang, J.; Zang, Y. (2020) J. Chem. Eng. Data 65(10), 4780-4789.",synthesized by the authors
1-methyl-1-propylpyrrolidinium bis[(trifluoromethyl)sulfonyl]imide,ABabds,QxCzb,25563.17933,12045.35738,0.400032461,CCC[N+]1(C)CCCC1.O=S(=O)([N-]S(=O)(=O)C(F)(F)F)C(F)(F)F,1-methyl-1-propylpyrrolidinium,bis[(trifluoromethyl)sulfonyl]imide,CCC[N+]1(CCCC1)C,O=S(=O)([N-]S(=O)(=O)C(F)(F)F)C(F)(F)F,"Liu, Q.; Zhao, L.; Ma, L.; Chu, J.; Wang, J.; Zang, Y. (2020) J. Chem. Eng. Data 65(10), 4780-4789.",synthesized by the authors
1-(2-hydroxyethyl)-1-methylpyrrolidin-1-ium bis((trifluoromethyl)sulfonyl)amide,ABavFV,lTSwc,28579.65525,23309.88591,0.229256982,C[N+]1(CCO)CCCC1.O=S(=O)([N-]S(=O)(=O)C(F)(F)F)C(F)(F)F,1-(2-hydroxyethyl)-1-methylpyrrolidin-1-ium,bis((trifluoromethyl)sulfonyl)amide,C[N+]1(CCO)CCCC1,O=S(=O)([N-]S(=O)(=O)C(F)(F)F)C(F)(F)F,"Liu, Q.; Zhao, L.; Ma, L.; Chu, J.; Wang, J.; Zang, Y. (2020) J. Chem. Eng. Data 65(10), 4780-4789.",synthesized by the authors
1-ethyl-3-methylimidazolium acetate,AAgmaR,coxCU,27149.23287,20311.47022,0.355743428,CCN1C=C[N+](=C1)C.CC(=O)[O-],1-ethyl-3-methylimidazolium,acetate,CCN1C=C[N+](=C1)C,CC(=O)[O-],"Nazet, A.; Sokolov, S.; Sonnleitner, T.; Makino, T.; Kanakubo, M.; Buchner, R. (2015) J. Chem. Eng. Data 60(8), 2400-2411.",commercial source
1-butyl-3-methylimidazolium bis(trifluoromethylsulfonyl)imide,ABchwx,VqOrF,32420.99405,176588.7091,0.36875207,CCCCN1C=C[N+](=C1)C.C(F)(F)(F)S(=O)(=O)[N-]S(=O)(=O)C(F)(F)F,1-butyl-3-methylimidazolium,bis(trifluoromethylsulfonyl)imide,CCCCN1C=C[N+](=C1)C,C(F)(F)(F)S(=O)(=O)NS(=O)(=O)C(F)(F)F,"Ramenskaya, L.M.; Grishina, E.P.; Kudryakova, N.O. (2018) J. Mol. Liq. 272, 759-765.",commercial source
1-methyl-3-propylimidazolium bis[(trifluoromethyl)sulfonyl]imide,ABZxGx,JpTPI,31321.06769,145607.4598,0.473875922,CCC[n+]1ccn(C)c1.O=S(=O)([N-]S(=O)(=O)C(F)(F)F)C(F)(F)F,1-methyl-3-propylimidazolium,bis[(trifluoromethyl)sulfonyl]imide,CCC[n+]1ccn(C)c1,O=S(=O)([N-]S(=O)(=O)C(F)(F)F)C(F)(F)F,"Ramenskaya, L.M.; Grishina, E.P.; Kudryakova, N.O. (2018) J. Mol. Liq. 272, 759-765.",commercial source
"1-ethyl-3-methylimidazolium difluorobis(2,2,2-trifluoroacetoxy)borate",ABWMjY,zrDni,28617.51384,92206.38955,0.893121474,CCn1cc[n+](C)c1.O=C([O-]->[Ba+](F)(F)<-[O-]C(=O)C(F)(F)F)C(F)(F)F,1-ethyl-3-methylimidazolium,"difluorobis(2,2,2-trifluoroacetoxy)borate",CCN1C=C[N+](=C1)C,O=C([O-]->[Ba+](F)(F)<-[O-]C(=O)C(F)(F)F)C(F)(F)F,"Schreiner, C.; Zugmann, S.; Hartl, R.; Gores, H. J. (2010) J. Chem. Eng. Data 55(10), 4372-4377.",synthesized by the authors
1-methyl-3-pentylimidazolium hexafluorophosphate,ABFSRj,YvkBS,22716.61638,1091.06922,0.114248853,CCCCCN1C=C[N+](=C1)C.F[P-](F)(F)(F)(F)F,1-methyl-3-pentylimidazolium,hexafluorophosphate,CCCCCN1C=C[N+](=C1)C,F[P-](F)(F)(F)(F)F,"Wu, T.-Y.; Chen, B.-K.; Hao, L.; Lin, K.-F.; Sun, I.-W. (2011) J. Tianjin Univ. Sci. Technol. 42, 914-921.",commercial source
4-hexyl-4-methylmorpholin-4-ium hexylphosphonate,ABPekR,DoGvW,24653.43853,362.0135085,0.017353572,CCCCCCO[PH](=O)[O-].CCCCCC[N+]1(C)CCOCC1,4-hexyl-4-methylmorpholin-4-ium,hexylphosphonate,CCCCCC[N+]1(CCOCC1)C,CCCCCC[N+]1(C)CCOCC1,"Zarrougui, R.; Raouafi, N.; Lemordant, D. (2014) J. Chem. Eng. Data 59(4), 1193-1201.",synthesized by the authors
N-hexyl-N-methylpyrrolidinium hexylphosphonate,ABMaoE,Dzsug,15525.8334,19.4581501,0.037063111,CCCCCCO[PH](=O)[O-].CCCCCC[N+]1(C)CCCC1,N-hexyl-N-methylpyrrolidinium,hexylphosphonate,CCCCCCO[PH](=O)[O-],CCCCCC[N+]1(C)CCCC1,"Zarrougui, R.; Raouafi, N.; Lemordant, D. (2014) J. Chem. Eng. Data 59(4), 1193-1201.",synthesized by the authors
1-butyl-1-methylpiperidin-1-ium butyl phosphonate,ABEVSF,OnpCM,28069.36773,2555.887223,0.030883577,CCCCO[PH](=O)[O-].CCCC[N+]1(C)CCCCC1,1-butyl-1-methylpiperidin-1-ium,butyl,CCCC[N+]1(CCCCC1)C,CCCC[N+]1(C)CCCCC1,"Zarrougui, R.; Raouafi, N.; Lemordant, D. (2014) J. Chem. Eng. Data 59(4), 1193-1201.",synthesized by the authors
1-butyl-1-methylpyrrolidin-1-ium butyl phosphonate,ABBlZb,zQIQy,32093.16266,11430.28472,0.027243654,CCCCO[PH](=O)[O-].CCCC[N+]1(C)CCCC1,1-butyl-1-methylpyrrolidin-1-ium,butyl,CCCC[N+]1(CCCC1)C,CCCC[N+]1(C)CCCC1,"Zarrougui, R.; Raouafi, N.; Lemordant, D. (2014) J. Chem. Eng. Data 59(4), 1193-1201.",synthesized by the authors
1-ethyl-1-methylpiperidin-1-ium ethyl phosphonate,AAtgEW,KwOUp,21606.7005,477.1548362,0.078184119,CCO[PH](=O)[O-].CC[N+]1(C)CCCCC1,1-ethyl-1-methylpiperidin-1-ium,ethyl,CCO[PH](=O)[O-],C[CH2],"Zarrougui, R.; Raouafi, N.; Lemordant, D. (2014) J. Chem. Eng. Data 59(4), 1193-1201.",synthesized by the authors
4-methyl-4-octylmorpholin-4-ium octylphosphonate,ABaTtK,uhAwF,20934.92009,84.34309995,0.018122001,CCCCCCCCO[PH](=O)[O-].CCCCCCCC[N+]1(C)CCOCC1,4-methyl-4-octylmorpholin-4-ium,octylphosphonate,CCCCCCCC[N+]1(CCOCC1)C,CCCCCCCC[N+]1(C)CCOCC1,"Zarrougui, R.; Raouafi, N.; Lemordant, D. (2014) J. Chem. Eng. Data 59(4), 1193-1201.",synthesized by the authors
N-methyl-N-octylpyrrolidinium octylphosphonate,ABXPbY,PKrCx,15654.94812,18.88503515,0.034145772,CCCCCCCCO[PH](=O)[O-].CCCCCCCC[N+]1(C)CCCC1,N-methyl-N-octylpyrrolidinium,octylphosphonate,CCCCCCCCO[PH](=O)[O-],CCCCCCCC[N+]1(C)CCCC1,"Zarrougui, R.; Raouafi, N.; Lemordant, D. (2014) J. Chem. Eng. Data 59(4), 1193-1201.",synthesized by the authors
1-hexyl-1-methylpiperidin-1-ium hexylphosphonate,ABPKHV,Bullw,16915.80805,38.53233767,0.041892772,CCCCCCO[PH](=O)[O-].CCCCCC[N+]1(C)CCCCC1,1-hexyl-1-methylpiperidin-1-ium,hexylphosphonate,CCCCCC[N+]1(CCCCC1)C,CCCCCC[N+]1(C)CCCCC1,"Zarrougui, R.; Raouafi, N.; Lemordant, D. (2014) J. Chem. Eng. Data 59(4), 1193-1201.",synthesized by the authors
1-butyl-3-methylimidazolium trifluoroacetate,AAwaEi,fdLaJ,34734.89538,303838.1424,0.24946711,CCCCN1C=C[N+](=C1)C.C(=O)(C(F)(F)F)[O-],1-butyl-3-methylimidazolium,trifluoroacetate,CCCCN1C=C[N+](=C1)C,C(=O)(C(F)(F)F)[O-],"Zech, O.; Stoppa, A.; Buchner, R.; Kunz, W. (2010) J. Chem. Eng. Data 55(5), 1774-1778.",synthesized by the authors
1-hexyl-3-methylimidazolium dicyanamide,AAstlh,AjEln,23546.19944,7115.276768,0.533146538,CCCCCCN1C=C[N+](=C1)C.C(=[N-])=NC#N,1-hexyl-3-methylimidazolium,dicyanamide,CCCCCCN1C=C[N+](=C1)C,C(#N)NC#N,"Zheng, Y.; Zheng, Y.; Wang, Q.; Wang, Z. (2021) J. Chem. Eng. Data 66(1), 480-493.",synthesized by the authors
3-methyl-1-pentylimidazolium dicyanamide,AAqIgK,bHDMK,22493.12953,6764.660784,0.775177131,CCCCCn1cc[n+](C)c1.N#C[N-]C#N,3-methyl-1-pentylimidazolium,dicyanamide,CCCCCn1cc[n+](C)c1,C(#N)NC#N,"Zheng, Y.; Zheng, Y.; Wang, Q.; Wang, Z. (2021) J. Chem. Eng. Data 66(1), 480-493.",synthesized by the authors
"4-methyl-1-propyl-1,2,4-triazolium tetrafluoroborate",AAoxuG,DRZfV,29917.06817,45356.71273,0.260079636,CCC[n+]1cn(C)cn1.F[B-](F)(F)F,"4-methyl-1-propyl-1,2,4-triazolium",tetrafluoroborate,CCC[n+]1cn(C)cn1,[B-](F)(F)(F)F,"Brauer, U. G.; De La Hoz, A. T.; Miller, K. M. (2015) J. Mol. Liq. 210, 286-292.",synthesized by the authors
"4-methyl-1-propyl-1,2,4-triazolium trifluoromethanesulfonate",ABAwOR,kcbNr,31095.41223,62376.96846,0.222351779,CCC[n+]1cn(C)cn1.O=S(=O)([O-])C(F)(F)F,"4-methyl-1-propyl-1,2,4-triazolium",trifluoromethanesulfonate,CCC[n+]1cn(C)cn1,C(F)(F)(F)S(=O)(=O)[O-],"Brauer, U. G.; De La Hoz, A. T.; Miller, K. M. (2015) J. Mol. Liq. 210, 286-292.",synthesized by the authors
"4-methyl-1-propyl-1H-1,2,4-triazol-4-ium bis((trifluoromethyl)sulfonyl)amide",ABaHPt,LTrFp,29155.45872,25156.80074,0.196135323,CCC[n+]1cn(C)cn1.O=S(=O)([N-]S(=O)(=O)C(F)(F)F)C(F)(F)F,"4-methyl-1-propyl-1H-1,2,4-triazol-4-ium",bis((trifluoromethyl)sulfonyl)amide,CCC[n+]1cn(C)cn1,O=S(=O)([N-]S(=O)(=O)C(F)(F)F)C(F)(F)F,"Brauer, U. G.; De La Hoz, A. T.; Miller, K. M. (2015) J. Mol. Liq. 210, 286-292.",synthesized by the authors
"4-methyl-1-propyl-1,2,4-triazolium tosylate",ABFJlm,SJeBW,55177.77431,30848272.69,0.006636898,CCC[n+]1cn(C)cn1.Cc1ccc(S(=O)(=O)[O-])cc1,"4-methyl-1-propyl-1,2,4-triazolium",tosylate,CCC[n+]1cn(C)cn1,CC1=CC=C(C=C1)S(=O)(=O)[O-],"Brauer, U. G.; De La Hoz, A. T.; Miller, K. M. (2015) J. Mol. Liq. 210, 286-292.",synthesized by the authors
1-ethyl-3-methylimidazolium decyl sulfate,ABPBqN,sjGiB,229183.9472,1.46e+37,0.001026752,CCCCCCCCCCOS(=O)(=O)[O-].CCn1cc[n+](C)c1,1-ethyl-3-methylimidazolium,decyl,CCN1C=C[N+](=C1)C,CCn1cc[n+](C)c1,"Cabeza, O.; Rilo, E.; Segade, L.; Dominguez-Perez, M.; Garcia-Garabal, S.; Ausin, D.; Lopez-Lago, E.; Varela, L. M.; Vilas, M.; Verdia, P.; Tojo, E. (2018) Mater. Chem. Front. 2(3), 505-513.",synthesized by the authors
"1-ethyl-4-methyl-1H-1,2,4-triazol-4-ium bis((trifluoromethyl)sulfonyl)amide",ABXWAp,qjgiX,25367.25719,9630.649362,0.346144233,CCn1c[n+](C)cn1.O=S(=O)([N-]S(=O)(=O)C(F)(F)F)C(F)(F)F,"1-ethyl-4-methyl-1H-1,2,4-triazol-4-ium",bis((trifluoromethyl)sulfonyl)amide,CCn1c[n+](C)cn1,O=S(=O)([N-]S(=O)(=O)C(F)(F)F)C(F)(F)F,"De La Hoz, A. T.; Brauer, U. G.; Miller, K. M. (2014) J. Phys. Chem. B 118, 9944-9951.",synthesized by the authors
"1-decyl-4-methyl-1H-1,2,4-triazol-4-ium bis((trifluoromethyl)sulfonyl)amide",ABtBlu,hBAuy,33386.94741,25621.19974,0.036235468,CCCCCCCCCCn1c[n+](C)cn1.O=S(=O)([N-]S(=O)(=O)C(F)(F)F)C(F)(F)F,"1-decyl-4-methyl-1H-1,2,4-triazol-4-ium",bis((trifluoromethyl)sulfonyl)amide,CCCCCCCCCCn1c[n+](C)cn1,O=S(=O)([N-]S(=O)(=O)C(F)(F)F)C(F)(F)F,"De La Hoz, A. T.; Brauer, U. G.; Miller, K. M. (2014) J. Phys. Chem. B 118, 9944-9951.",synthesized by the authors
"4-methyl-1-octyl-1H-1,2,4-triazol-4-ium bis((trifluoromethyl)sulfonyl)amide",ABngLW,eDlhI,34449.29008,51624.61326,0.047562698,CCCCCCCCn1c[n+](C)cn1.O=S(=O)([N-]S(=O)(=O)C(F)(F)F)C(F)(F)F,"4-methyl-1-octyl-1H-1,2,4-triazol-4-ium",bis((trifluoromethyl)sulfonyl)amide,CCCCCCCCn1c[n+](C)cn1,O=S(=O)([N-]S(=O)(=O)C(F)(F)F)C(F)(F)F,"De La Hoz, A. T.; Brauer, U. G.; Miller, K. M. (2014) J. Phys. Chem. B 118, 9944-9951.",synthesized by the authors
"1-hexyl-4-methyl-1H-1,2,4-triazol-4-ium bis((trifluoromethyl)sulfonyl)amide",ABiLtp,kKZvw,34532.42346,79609.55625,0.070926695,CCCCCCn1c[n+](C)cn1.O=S(=O)([N-]S(=O)(=O)C(F)(F)F)C(F)(F)F,"1-hexyl-4-methyl-1H-1,2,4-triazol-4-ium",bis((trifluoromethyl)sulfonyl)amide,CCCCCCn1c[n+](C)cn1,O=S(=O)([N-]S(=O)(=O)C(F)(F)F)C(F)(F)F,"De La Hoz, A. T.; Brauer, U. G.; Miller, K. M. (2014) J. Phys. Chem. B 118, 9944-9951.",synthesized by the authors
"4-methyl-1-propyl-1H-1,2,4-triazol-4-ium bis((trifluoromethyl)sulfonyl)amide",ABaHPt,PjZAS,29261.83589,26169.76561,0.195462175,CCC[n+]1cn(C)cn1.O=S(=O)([N-]S(=O)(=O)C(F)(F)F)C(F)(F)F,"4-methyl-1-propyl-1H-1,2,4-triazol-4-ium",bis((trifluoromethyl)sulfonyl)amide,CCC[n+]1cn(C)cn1,O=S(=O)([N-]S(=O)(=O)C(F)(F)F)C(F)(F)F,"De La Hoz, A. T.; Brauer, U. G.; Miller, K. M. (2014) J. Phys. Chem. B 118, 9944-9951.",synthesized by the authors
N-(2-aminoethyl)hexan-1-aminium bis((trifluoromethyl)sulfonyl)amide,ABdqsP,ZfVEj,45016.17165,1814094.327,0.0235358,CCCCCC[NH2+]CCN.O=S(=O)([N-]S(=O)(=O)C(F)(F)F)C(F)(F)F,N-(2-aminoethyl)hexan-1-aminium,bis((trifluoromethyl)sulfonyl)amide,CCCCCC[NH2+]CCN,O=S(=O)([N-]S(=O)(=O)C(F)(F)F)C(F)(F)F,"Er, H.; Xu, Y.; Zhao, H. (2019) J. Mol. Liq. 276, 379-384.",synthesized by the authors
1-butyl-3-methylimidazolium iodide,AAzJkz,hTbFK,37362.4807,381010.3961,0.108380009,CCCCN1C=C[N+](=C1)C.[I-],1-butyl-3-methylimidazolium,iodide,CCCCN1C=C[N+](=C1)C,[I-],"Every, H. A.; Bishop, A. G.; MacFarlane, D. R.; Oradd, G.; Forsyth, M. (2004) Phys. Chem. Chem. Phys. 6(8), 1758-1765.",synthesized by the authors
1-ethyl-3-methylimidazolium iodide,AAtodn,eprJS,34948.94028,227058.2563,0.171004355,CCN1C=C[N+](=C1)C.[I-],1-ethyl-3-methylimidazolium,iodide,CCN1C=C[N+](=C1)C,[I-],"Every, H. A.; Bishop, A. G.; MacFarlane, D. R.; Oradd, G.; Forsyth, M. (2004) Phys. Chem. Chem. Phys. 6(8), 1758-1765.",synthesized by the authors
1-(2-methoxyethyl)-3-methylimidazolium thiocyanate,AAmQcG,MjUzC,31576.58605,136803.5592,0.401616034,COCCn1cc[n+](C)c1.N#C[S-],1-(2-methoxyethyl)-3-methylimidazolium,thiocyanate,COCCn1cc[n+](C)c1,C(#N)[S-],"Guan, Xin; Zhang, Xinyuan; Gu, Zhe; Wei, Ying; Zhang, Qingguo (2022) J. Chem. Eng. Data 67(10), 2857-2871.",commercial source
"N-ethyl-N,N-dimethylprop-2-en-1-aminium trifluoromethanesulfonate",AAygSz,lhtzY,31777.86853,80589.30558,0.218135291,C=CC[N+](C)(C)CC.O=S(=O)([O-])C(F)(F)F,"N-ethyl-N,N-dimethylprop-2-en-1-aminium",trifluoromethanesulfonate,C=CC[N+](C)(C)CC,C(F)(F)(F)S(=O)(=O)[O-],"Hachicha, R.; Zarrougui, R.; Messaoudi, S.; le Vot, S.; Fontaine, O.; Favier, F.; Ghodbane, O. (2019) J. Mol. Liq. 284, 522-535.",synthesized by the authors
"N-ethyl-N,N-dimethylprop-2-en-1-aminium trifluoroacetate",AArkqy,zRFPs,27972.17003,30275.3741,0.380456202,C=CC[N+](C)(C)CC.O=C([O-])C(F)(F)F,"N-ethyl-N,N-dimethylprop-2-en-1-aminium",trifluoroacetate,C=CC[N+](C)(C)CC,C(=O)(C(F)(F)F)[O-],"Hachicha, R.; Zarrougui, R.; Messaoudi, S.; le Vot, S.; Fontaine, O.; Favier, F.; Ghodbane, O. (2019) J. Mol. Liq. 284, 522-535.",synthesized by the authors
"N-ethyl-N,N-dimethylprop-2-en-1-aminium bis((trifluoromethyl)sulfonyl)amide",ABXrMm,gLbyG,25185.28626,9464.278491,0.366075565,C=CC[N+](C)(C)CC.O=S(=O)([N-]S(=O)(=O)C(F)(F)F)C(F)(F)F,"N-ethyl-N,N-dimethylprop-2-en-1-aminium",bis((trifluoromethyl)sulfonyl)amide,C=CC[N+](C)(C)CC,O=S(=O)([N-]S(=O)(=O)C(F)(F)F)C(F)(F)F,"Hachicha, R.; Zarrougui, R.; Messaoudi, S.; le Vot, S.; Fontaine, O.; Favier, F.; Ghodbane, O. (2019) J. Mol. Liq. 284, 522-535.",synthesized by the authors
1-pentylpyridinium bis(trifluoromethylsulfonyl)amide,ABenjQ,MTSIu,30029.80559,39325.13211,0.215468172,CCCCC[n+]1ccccc1.O=S(=O)([N-]S(=O)(=O)C(F)(F)F)C(F)(F)F,1-pentylpyridinium,bis(trifluoromethylsulfonyl)amide,CCCCC[n+]1ccccc1,O=S(=O)([N-]S(=O)(=O)C(F)(F)F)C(F)(F)F,"Liu, Q.; Yan, P.; Yang, M.; Tan, Z.-C.; Li, C.; Welz, B. U. (2011) Acta Phys. Chim. Sin. 27(12), 2762-2766.",synthesized by the authors
1-butylpyridinium bis[(trifluoromethyl)sulfonyl]imide,ABcDLM,ktnjv,28754.29882,33944.04912,0.311134476,CCCC[n+]1ccccc1.O=S(=O)([N-]S(=O)(=O)C(F)(F)F)C(F)(F)F,1-butylpyridinium,bis[(trifluoromethyl)sulfonyl]imide,CCCC[N+]1=CC=CC=C1,O=S(=O)([N-]S(=O)(=O)C(F)(F)F)C(F)(F)F,"Liu, Q.; Yan, P.; Yang, M.; Tan, Z.-C.; Li, C.; Welz, B. U. (2011) Acta Phys. Chim. Sin. 27(12), 2762-2766.",synthesized by the authors
1-hexylpyridinium bis(trifluromethylsulfonyl)imide,ABhYBm,yPgjy,32435.6976,77950.92894,0.161814239,CCCCCC[n+]1ccccc1.O=S(=O)([N-]S(=O)(=O)C(F)(F)F)C(F)(F)F,1-hexylpyridinium,bis(trifluromethylsulfonyl)imide,CCCCCC[N+]1=CC=CC=C1,O=S(=O)([N-]S(=O)(=O)C(F)(F)F)C(F)(F)F,"Liu, Q.-S.; Yang, M.; Li, P.-P.; Sun, S.-S.; Welz-Biermann, U.; Tan, Z.-C.; Zhang, Q.-G. (2011) J. Chem. Eng. Data 56(11), 4094-4101.",synthesized by the authors
1-ethyl-4-methylpyridinium bis((trifluoromethyl)sulfonyl)amide,ABZTYy,qWcFS,23410.64346,9403.529757,0.744209826,CC[n+]1ccc(C)cc1.O=S(=O)([N-]S(=O)(=O)C(F)(F)F)C(F)F,1-ethyl-4-methylpyridinium,bis((trifluoromethyl)sulfonyl)amide,CC[n+]1ccc(C)cc1,O=S(=O)([N-]S(=O)(=O)C(F)(F)F)C(F)F,"Liu, Q.-S.; Li, P.-P.; Welz-Biermann, U.; Liu, X.-X.; Chen, J. (2012) J. Chem. Eng. Data 57(11), 2999-3004.",synthesized by the authors
3-(2-(butylamino)-2-oxoethyl)-1-ethyl-1H-imidazolium bis((trifluoromethyl)sulfonyl)amide,ABqQfg,AKBAd,51532.99242,23021635.96,0.021549845,CCCCNC(=O)C[n+]1ccn(CC)c1.O=S(=O)([N-]S(=O)(=O)C(F)(F)F)C(F)(F)F,3-(2-(butylamino)-2-oxoethyl)-1-ethyl-1H-imidazolium,bis((trifluoromethyl)sulfonyl)amide,CCCCNC(=O)C[n+]1ccn(CC)c1,O=S(=O)([N-]S(=O)(=O)C(F)(F)F)C(F)(F)F,"Liu, Q.-S.; Li, Z.; Welz-Biermann, U.; Li, C.-P.; Liu, X.-X. (2013) J. Chem. Eng. Data 58(1), 93-98.",synthesized by the authors
triethyloctylammonium bis[(trifluoromethyl)sulfonyl]imide,ABrFsY,KrTCY,29304.10064,10071.19092,0.073950114,CCCCCCCC[N+](CC)(CC)CC.O=S(=O)([N-]S(=O)(=O)C(F)(F)F)C(F)(F)F,triethyloctylammonium,bis[(trifluoromethyl)sulfonyl]imide,CCCCCCCC[N+](CC)(CC)CC,O=S(=O)([N-]S(=O)(=O)C(F)(F)F)C(F)(F)F,"Machanova, K.; Boisset, A.; Sedlakova, Z.; Anouti, M.; Bendova, M.; Jacquemin, J. (2012) J. Chem. Eng. Data 57(8), 2227-2235.",commercial source
"N,N-dimethyl-N-ethyl-N-pentylammonium bis(trifluoromethylsulfonyl)",ABdgRL,DRKhB,34962.40639,167322.1508,0.125332592,CCCCC[N+](C)(C)CC.O=S(=O)([N-]S(=O)(=O)C(F)(F)F)C(F)(F)F,"N,N-dimethyl-N-ethyl-N-pentylammonium",bis(trifluoromethylsulfonyl),CCCCC[N+](C)(C)CC,O=S(=O)([N-]S(=O)(=O)C(F)(F)F)C(F)(F)F,"Makino, T.; Kanakubo, M.; Umecky, T.; Suzuki, A. (2013) J. Chem. Eng. Data 58(2), 370-376.",synthesized by the authors
"2-(acetyloxy)-N-ethyl-N,N-dimethylethanaminium 1,1,1-trifluoro-N-[(trifluoromethyl)sulfonyl]methanesulfonamide",ABgjVS,RXAcp,39990.09013,920410.1376,0.090704927,CC[N+](C)(C)CCOC(C)=O.O=S(=O)([N-]S(=O)(=O)C(F)(F)F)C(F)(F)F,"2-(acetyloxy)-N-ethyl-N,N-dimethylethanaminium","1,1,1-trifluoro-N-[(trifluoromethyl)sulfonyl]methanesulfonamide",CC[N+](C)(C)CCOC(C)=O,C(F)(F)(F)S(=O)(=O)NS(=O)(=O)C(F)(F)F,"Makino, T.; Kanakubo, M.; Umecky, T.; Suzuki, A. (2013) J. Chem. Eng. Data 58(2), 370-376.",synthesized by the authors
"N-ethyl-N,N-dimethylheptanaminium bis((trifluoromethyl)sulfonyl)amide",ABjAkD,GdAjb,36867.82714,211046.5366,0.073291728,CCCCCCC[N+](C)(C)CC.O=S(=O)([N-]S(=O)(=O)C(F)(F)F)C(F)(F)F,"N-ethyl-N,N-dimethylheptanaminium",bis((trifluoromethyl)sulfonyl)amide,CCCCCCC[N+](C)(C)CC,O=S(=O)([N-]S(=O)(=O)C(F)(F)F)C(F)(F)F,"Makino, T.; Kanakubo, M.; Umecky, T.; Suzuki, A. (2013) J. Chem. Eng. Data 58(2), 370-376.",synthesized by the authors
"N-ethyl-2-(2-methoxyethoxy)-N,N-dimethylethanaminium bis(trifluoromethylsulfonyl)imide",ABjozj,juzGa,29058.24295,28955.43051,0.234780944,CC[N+](C)(C)CCOCCOC.O=S(=O)([N-]S(=O)(=O)C(F)(F)F)C(F)(F)F,"N-ethyl-2-(2-methoxyethoxy)-N,N-dimethylethanaminium",bis(trifluoromethylsulfonyl)imide,CC[N+](C)(C)CCOCCOC,C(F)(F)(F)S(=O)(=O)NS(=O)(=O)C(F)(F)F,"Makino, T.; Kanakubo, M.; Umecky, T.; Suzuki, A. (2013) J. Chem. Eng. Data 58(2), 370-376.",synthesized by the authors
1-ethyl-3-methylimidazolium bis((trifluoromethyl)sulfonyl)imide,ABXNZH,eTKKJ,21946.40265,6014.199018,0.859251816,CCN1C=C[N+](=C1)C.C(F)(F)(F)S(=O)(=O)[N-]S(=O)(=O)C(F)(F)F,1-ethyl-3-methylimidazolium,bis((trifluoromethyl)sulfonyl)imide,CCN1C=C[N+](=C1)C,CCCCN1C=C[N+](=C1C)C.C(F)(F)(F)S(=O)(=O)[N-]S(=O)(=O)C(F)(F)F,"Makino, T.; Kanakubo, M.; Masuda, Y.; Umecky, T.; Suzuki, A. (2014) Fluid Phase Equilib. 362, 300.",synthesized by the authors
1-(2-hydroxyethyl)-pyridinium bis(trifluoromethylsulfonyl)imide,ABZmbL,gYTPn,35143.22363,293761.5724,0.204562486,O=S(=O)([N-]S(=O)(=O)C(F)(F)F)C(F)(F)F.OCC[n+]1ccccc1,1-(2-hydroxyethyl)-pyridinium,bis(trifluoromethylsulfonyl)imide,O=S(=O)([N-]S(=O)(=O)C(F)(F)F)C(F)(F)F,C(F)(F)(F)S(=O)(=O)NS(=O)(=O)C(F)(F)F,"Makinoa, T.; Kanakuboa, M.; Umecky, T.; Suzuki, A. (2013) Fluid Phase Equilib. 357, 64-70.",commercial source
"3,3'-(propane-1,3-diyl)bis(1-methyl-1H-imidazol-3-ium) bis((trifluoromethyl)sulfonyl)amide",ACrVWg,lfOhF,38185.67688,278888.8886,0.05691383,Cn1cc[n+](CCC[n+]2ccn(C)c2)c1.O=S(=O)([N-]S(=O)(=O)C(F)(F)F)C(F)(F)F,"3,3'-(propane-1,3-diyl)bis(1-methyl-1H-imidazol-3-ium)",bis((trifluoromethyl)sulfonyl)amide,Cn1cc[n+](CCC[n+]2ccn(C)c2)c1,O=S(=O)([N-]S(=O)(=O)C(F)(F)F)C(F)(F)F,"Moosavi, M.; Khashei, F.; Sharifi, A.; Mirzaei, M. (2016) Ind. Eng. Chem. Res. 55, 9087-9099.",synthesized by the authors