Name,Structure Graph ID,ID,Ea (J/mol),A,RT_conductivity (S/m),SMILES,Cation Name,Anion Name,Cation SMILES,Anion SMILES,reference,source
4-(2-methoxyethyl)-4-methylmorpholinium bis(trifluoromethylsulfonyl)amide,ABgjLr,QDRif,25343.53773,1780.385849,0.064605778,COCC[N+]1(C)CCOCC1.O=S(=O)([N-]S(=O)(=O)C(F)(F)F)C(F)(F)F,4-(2-methoxyethyl)-4-methylmorpholinium,bis(trifluoromethylsulfonyl)amide,COCC[N+]1(C)CCOCC1,O=S(=O)([N-]S(=O)(=O)C(F)(F)F)C(F)(F)F,"Ibrahim, M. H.; Hayyan, M.; Hashim, M. A.; Hayyan, A.; Hadj-Kali, M. K. (2016) Fluid Phase Equilib. 427, 18-26.",commercial source
1-(2-methoxyethyl)-1-methylpiperidinium bis(trifluoromethylsulfonyl)imide,ABgQHQ,anNAb,16051.04342,135.3745736,0.208621703,COCC[N+]1(C)CCCCC1.O=S(=O)([N-]S(=O)(=O)C(F)(F)F)C(F)(F)F,1-(2-methoxyethyl)-1-methylpiperidinium,bis(trifluoromethylsulfonyl)imide,COCC[N+]1(C)CCCCC1,C(F)(F)(F)S(=O)(=O)NS(=O)(=O)C(F)(F)F,"Ibrahim, M. H.; Hayyan, M.; Hashim, M. A.; Hayyan, A.; Hadj-Kali, M. K. (2016) Fluid Phase Equilib. 427, 18-26.",commercial source
1-butyl-3-methylimidazolium tetrafluoroborate,AArYBF,VQKsR,34456.06677,231452.1953,0.21265896,[B-](F)(F)(F)F.CCCCN1C=C[N+](=C1)C,1-butyl-3-methylimidazolium,tetrafluoroborate,CCCCN1C=C[N+](=C1)C,[B-](F)(F)(F)F,"Li, W.; Zhang, Z.; Han, B.; Hu, S.; Xie, Y.; Yang, G. (2007) J. Phys. Chem. B 111, 6452-6456.",synthesized by the authors
tetrabutylphosphonium L-prolinate,ABTrBd,QHWAg,46766.23484,1194367.982,0.007648784,CCCC[P+](CCCC)(CCCC)CCCC.C1CC(NC1)C(=O)[O-],tetrabutylphosphonium,L-prolinate,CCCC[P+](CCCC)(CCCC)CCCC,C1CC(NC1)C(=O)[O-],"Makino, T.; Kanakubo, M.; Matsuki, T.; Kamio, E.; Takaba, H.; Matsuyama, H. (2016) Fluid Phase Equilib. 420, 89-96.",synthesized by the authors
1-hexyl-3-methylimidazolium hexafluorophosphate,ABICIG,eTVlK,40560.19776,751148.3544,0.058815408,CCCCCCN1C=C[N+](=C1)C.F[P-](F)(F)(F)(F)F,1-hexyl-3-methylimidazolium,hexafluorophosphate,CCCCCCN1C=C[N+](=C1)C,F[P-](F)(F)(F)(F)F,"Ning, H.; Hou, M.; Mei, Q.; Liu, Y.; Yang, D.; Han, B. (2012) Sci. China Chem. 55(8), 1509-1518.",commercial source
1-hexyl-3-methylimidazolium chloride,AAmzKp,KOyEc,72346.0246,9848462987.0,0.002080597,CCCCCCN1C=C[N+](=C1)C.[Cl-],1-hexyl-3-methylimidazolium,chloride,CCCCCCN1C=C[N+](=C1)C,[Cl-],"Ning, H.; Hou, M.; Mei, Q.; Liu, Y.; Yang, D.; Han, B. (2012) Sci. China Chem. 55(8), 1509-1518.",commercial source
1-hexyl-3-methylimidazolium tetrafluoroborate,AAwscj,EfKlN,35849.99817,246419.4314,0.129026087,[B-](F)(F)(F)F.CCCCCCN1C=C[N+](=C1)C,1-hexyl-3-methylimidazolium,tetrafluoroborate,CCCCCCN1C=C[N+](=C1)C,[B-](F)(F)(F)F,"Ning, H.; Hou, M.; Mei, Q.; Liu, Y.; Yang, D.; Han, B. (2012) Sci. China Chem. 55(8), 1509-1518.",commercial source
1-methyl-3-octylimidazolium chloride,AAsTjr,KXGYP,70447.07267,3113524684.0,0.001415052,CCCCCCCCN1C=C[N+](=C1)C.[Cl-],1-methyl-3-octylimidazolium,chloride,CCCCCCCCN1C=C[N+](=C1)C,[Cl-],"Ning, H.; Hou, M.; Mei, Q.; Liu, Y.; Yang, D.; Han, B. (2012) Sci. China Chem. 55(8), 1509-1518.",commercial source
1-methyl-3-octylimidazolium tetrafluoroborate,ABCNhW,JxLha,38176.45356,317811.9433,0.065098767,[B-](F)(F)(F)F.CCCCCCCCN1C=C[N+](=C1)C,1-methyl-3-octylimidazolium,tetrafluoroborate,CCCCCCCCN1C=C[N+](=C1)C,[B-](F)(F)(F)F,"Ning, H.; Hou, M.; Mei, Q.; Liu, Y.; Yang, D.; Han, B. (2012) Sci. China Chem. 55(8), 1509-1518.",commercial source
"(S)-1-(2,3-dihydroxypropyl)-1-methylpyrrolidinium bis((trifluoromethyl)sulfonyl)amide",ABgjTp,sLJOv,49482.33083,16586375.86,0.035509114,C[N+]1(C[C@H](O)CO)CCCC1.O=S(=O)([N-]S(=O)(=O)C(F)(F)F)C(F)(F)F,"(S)-1-(2,3-dihydroxypropyl)-1-methylpyrrolidinium",bis((trifluoromethyl)sulfonyl)amide,C[N+]1(C[C@H](O)CO)CCCC1,O=S(=O)([N-]S(=O)(=O)C(F)(F)F)C(F)(F)F,"Ohkubo, K.; Yanagisawa, K.; Kamimura, A.; Fujii, K. (2020) J. Phys. Chem. B 124(18), 3784-3790.",synthesized by the authors
"(S)-1-((2,2-dimethyl-1,3-dioxolan-4-yl)methyl)-1-methylpyrrolidinium bis((trifluoromethyl)sulfonyl)amide",ABoUcd,suRSA,43041.6894,1613409.18,0.046424496,CC1(C)OC[C@H](C[N+]2(C)CCCC2)O1.O=S(=O)([N-]S(=O)(=O)C(F)(F)F)C(F)(F)F,"(S)-1-((2,2-dimethyl-1,3-dioxolan-4-yl)methyl)-1-methylpyrrolidinium",bis((trifluoromethyl)sulfonyl)amide,CC1(C)OC[C@H](C[N+]2(C)CCCC2)O1,O=S(=O)([N-]S(=O)(=O)C(F)(F)F)C(F)(F)F,"Ohkubo, K.; Yanagisawa, K.; Kamimura, A.; Fujii, K. (2020) J. Phys. Chem. B 124(18), 3784-3790.",synthesized by the authors
1-methyl-3-propylimidazolium bis[(trifluoromethyl)sulfonyl]imide,ABZxGx,brllB,24954.58547,10202.33365,0.433113809,CCC[n+]1ccn(C)c1.O=S(=O)([N-]S(=O)(=O)C(F)(F)F)C(F)(F)F,1-methyl-3-propylimidazolium,bis[(trifluoromethyl)sulfonyl]imide,CCC[n+]1ccn(C)c1,O=S(=O)([N-]S(=O)(=O)C(F)(F)F)C(F)(F)F,"Papovic, S.; Vranes, M.; Gadzuric, S. (2015) J. Chem. Thermodyn. 91, 360-368.",commercial source
1-hexyl-3-methylimidazolium bis[(trifluoromethyl)sulfonyl]imide,ABiCtA,mtETT,29903.78368,38247.85391,0.220495293,CCCCCCn1cc[n+](C)c1.O=S(=O)([N-]S(=O)(=O)C(F)(F)F)C(F)(F)F,1-hexyl-3-methylimidazolium,bis[(trifluoromethyl)sulfonyl]imide,CCCCCCN1C=C[N+](=C1)C,O=S(=O)([N-]S(=O)(=O)C(F)(F)F)C(F)(F)F,"Papovic, S.; Gadzuric, S.; Bester-Rogac, M.; Vranes, M. (2016) J. Chem. Thermodyn. 102, 367-377.",commercial source
"1-butyl-2,3-dimethylimidazolium bis(trifluoromethylsulfonyl)amide",ABfReB,faiRV,31680.35112,81144.92691,0.2284521,CCCCn1cc[n+](C)c1C.O=S(=O)([N-]S(=O)(=O)C(F)(F)F)C(F)(F)F,"1-butyl-2,3-dimethylimidazolium",bis(trifluoromethylsulfonyl)amide,CCCCN1C=C[N+](=C1C)C,O=S(=O)([N-]S(=O)(=O)C(F)(F)F)C(F)(F)F,"Papovic, S.; Gadzuric, S.; Bester-Rogac, M.; Vranes, M. (2016) J. Chem. Thermodyn. 102, 367-377.",commercial source
"1-ethyl-2,3-dimethylimidazolium bis[(trifluoromethyl)sulfonyl]imide",ABZxnD,TKymU,28519.78594,37998.27348,0.382856054,CCn1cc[n+](C)c1C.O=S(=O)([N-]S(=O)(=O)C(F)(F)F)C(F)(F)F,"1-ethyl-2,3-dimethylimidazolium",bis[(trifluoromethyl)sulfonyl]imide,CCN1C=C[N+](=C1C)C,O=S(=O)([N-]S(=O)(=O)C(F)(F)F)C(F)(F)F,"Papovic, S.; Gadzuric, S.; Bester-Rogac, M.; Vranes, M. (2016) J. Chem. Thermodyn. 102, 367-377.",commercial source
1-methyl-3-octylimidazolium bis(trifluoromethylsulfonyl)imide,ABnWNT,aFLEl,32146.92269,57943.6114,0.135143446,CCCCCCCCN1C=C[N+](=C1)C.C(F)(F)(F)S(=O)(=O)[N-]S(=O)(=O)C(F)(F)F,1-methyl-3-octylimidazolium,bis(trifluoromethylsulfonyl)imide,CCCCCCCCN1C=C[N+](=C1)C,C(F)(F)(F)S(=O)(=O)NS(=O)(=O)C(F)(F)F,"Papovic, S.; Gadzuric, S.; Bester-Rogac, M.; Vranes, M. (2016) J. Chem. Thermodyn. 102, 367-377.",commercial source
1-ethyl-3-methylimidazolium bis((trifluoromethyl)sulfonyl)imide,ABXNZH,UYtTM,20830.07051,4047.032813,0.907116778,CCN1C=C[N+](=C1)C.C(F)(F)(F)S(=O)(=O)[N-]S(=O)(=O)C(F)(F)F,1-ethyl-3-methylimidazolium,bis((trifluoromethyl)sulfonyl)imide,CCN1C=C[N+](=C1)C,CCCCN1C=C[N+](=C1C)C.C(F)(F)(F)S(=O)(=O)[N-]S(=O)(=O)C(F)(F)F,"Papovic, S.; Gadzuric, S.; Bester-Rogac, M.; Vranes, M. (2016) J. Chem. Thermodyn. 102, 367-377.",commercial source
"1,2-dimethyl-3-propylimidazolium bis[(trifluoromethyl)sulfonyl]imide",ABchRt,LaNdN,32512.09062,129845.9246,0.261360252,CCC[n+]1ccn(C)c1C.O=S(=O)([N-]S(=O)(=O)C(F)(F)F)C(F)F,"1,2-dimethyl-3-propylimidazolium",bis[(trifluoromethyl)sulfonyl]imide,CCC[n+]1ccn(C)c1C,O=S(=O)([N-]S(=O)(=O)C(F)(F)F)C(F)F,"Papovic, S.; Gadzuric, S.; Bester-Rogac, M.; Vranes, M. (2016) J. Chem. Thermodyn. 102, 367-377.",commercial source
1-butyl-1-methylpyrrolidinium bis[(trifluoromethyl)sulfonyl]imide,ABdMNo,UsBPo,29915.26788,47594.48656,0.27310952,CCCC[N+]1(C)CCCC1.O=S(=O)([N-]S(=O)(=O)C(F)(F)F)C(F)(F)F,1-butyl-1-methylpyrrolidinium,bis[(trifluoromethyl)sulfonyl]imide,CCCC[N+]1(CCCC1)C,O=S(=O)([N-]S(=O)(=O)C(F)(F)F)C(F)(F)F,"Papovic, S.; Vranes, M.; Tot, A.; Szilagyi, I.; Katana, B.; Alenezi, K.; Gadzuric, S. (2020) J. Chem. Eng. Data 65(1), 68-80.",commercial source
N-butyltropinium L-aspartate,ABLceY,PywOi,89555.3607,23917237891.0,4.88e-06,N[C@@H](CC(=O)O)C(=O)[O-].[H][C@]12CC[C@]([H])(C[C@H](O)C1)[N+]2(C)CCCC,N-butyltropinium,L-aspartate,N[C@@H](CC(=O)O)C(=O)[O-],C(C(C(=O)O)N)C(=O)O,"Peng, L.; Wang, Z.; Zhu, H.; Zeng, T.; Zhou, W.; Yao, S.; Song, H. (2021) J. Mol. Liq. 342, 116938.",synthesized by the authors
4-methyl-4-pentylmorpholinium N-cyanocyanamide,AAtryW,Sjfax,27629.84894,5608.58166,0.080917712,CCCCC[N+]1(C)CCOCC1.N#C[N-]C#N,4-methyl-4-pentylmorpholinium,N-cyanocyanamide,CCCCC[N+]1(C)CCOCC1,N#C[N-]C#N,"Russina, O.; Caminiti, R.; Triolo, A.; Rajamani, S.; Melai, B.; Bertoli, A.; Chiappe, C. (2013) J. Mol. Liq. 187, 252-259.",synthesized by the authors
4-methyl-4-octylmorpholinium N-cyanocyanamide,ABBwEj,mpbwS,28386.8539,2361.417573,0.025103509,CCCCCCCC[N+]1(C)CCOCC1.N#C[N-]C#N,4-methyl-4-octylmorpholinium,N-cyanocyanamide,CCCCCCCC[N+]1(C)CCOCC1,N#C[N-]C#N,"Russina, O.; Caminiti, R.; Triolo, A.; Rajamani, S.; Melai, B.; Bertoli, A.; Chiappe, C. (2013) J. Mol. Liq. 187, 252-259.",synthesized by the authors
1-ethyl-3-methylpyridinium perfluoropentanoate,ABWEzw,UfgjK,35260.95883,180397.8102,0.119793928,CC[N+]1=CC=CC(=C1)C.C(=O)(C(C(C(C(F)(F)F)(F)F)(F)F)(F)F)[O-],1-ethyl-3-methylpyridinium,perfluoropentanoate,CC[N+]1=CC=CC(=C1)C,C(=O)(C(C(C(C(F)(F)F)(F)F)(F)F)(F)F)[O-],"Vieira, N. S. M.; Luis, A.; Reis, P. M.; Carvalho, P. J.; Lopes-da-Silva, J. A.; Esperanca, J. M. S. S.; Araujo, J. M. M.; Rebelo, L. P. N.; Freire, M. G.; Pereiro, A. B. (2016) J. Chem. Thermodyn. 97, 354-361.",synthesized by the authors
1-decyl-3-methylimidazolium tetrafluoroborate,ABHhVu,gAEjY,127970.6675,1.02e+20,0.003859759,[B-](F)(F)(F)F.CCCCCCCCCCN1C=C[N+](=C1)C,1-decyl-3-methylimidazolium,tetrafluoroborate,CCCCCCCCCCN1C=C[N+](=C1)C,[B-](F)(F)(F)F,"Vila, J.; Fernandez-Castro, B.; Rilo, E.; Carrete, J.; Dominguez-Perez, M.; Rodriguez, J. R.; Garcia, M.; Varela, L. M.; Cabeza, O. (2012) Fluid Phase Equilib. 320, 1-10.",commercial source
1-butyl-3-methylimidazolium bis(trifluoromethylsulfonyl)imide,ABchwx,nckPv,23868.76133,6088.306044,0.40053247,CCCCN1C=C[N+](=C1)C.C(F)(F)(F)S(=O)(=O)[N-]S(=O)(=O)C(F)(F)F,1-butyl-3-methylimidazolium,bis(trifluoromethylsulfonyl)imide,CCCCN1C=C[N+](=C1)C,C(F)(F)(F)S(=O)(=O)NS(=O)(=O)C(F)(F)F,"Vranes, M.; Papovic, S.; Tot, A.; Zec, N.; Gadzuric, S. (2014) J. Chem. Thermodyn. 76, 161-171.",commercial source
1-butyl-3-methylimidazolium salicylate,ABBHCu,pRUJP,65697.25536,9236425948.0,0.028523469,CCCCN1C=C[N+](=C1)C.C1=CC=C(C(=C1)C(=O)O)[O-],1-butyl-3-methylimidazolium,salicylate,CCCCN1C=C[N+](=C1)C,C1=CC=C(C(=C1)C(=O)O)[O-],"Vranes, M.; Armakovic, S.; Tot, A.; Papovic, S.; Zec, N.; Armakovic, S.; Banic, N.; Abramovic, B.; Gadzuric, S. (2016) J. Chem. Thermodyn. 93, 164-171.",synthesized by the authors
1-(2-ethoxyethyl)-3-methylimidazolium acetate,AApKPw,NqiVG,43579.67953,10510071.07,0.243417217,CC(=O)[O-].CCOCC[n+]1ccn(C)c1,1-(2-ethoxyethyl)-3-methylimidazolium,acetate,CC(=O)[O-],CC(=O)[O-],"Wang, J.; Li, Y.; Liu, H.; Tong, J. (2022) J. Mol. Liq. 351, 118621.",synthesized by the authors
1-(2-ethoxyethyl)-3-methylimidazolium lactate,AAuylj,AvJQX,47362.88609,33033865.14,0.166294941,CC(O)C(=O)[O-].CCOCCn1cc[n+](C)c1,1-(2-ethoxyethyl)-3-methylimidazolium,lactate,CC(O)C(=O)[O-],CC(C(=O)[O-])O,"Wang, J.; Li, Y.; Liu, H.; Tong, J. (2022) J. Mol. Liq. 351, 118621.",synthesized by the authors
1-(2-ethoxyethyl)-3-methylimidazolium propanoate,AAruhC,tsvPy,54390.97969,596365269.7,0.176236049,CCC(=O)[O-].CCOCCn1cc[n+](C)c1,1-(2-ethoxyethyl)-3-methylimidazolium,propanoate,CCC(=O)[O-],CCC(=O)[O-],"wang, J.; Li, Y.; Guo, C.; Zhao, Y.; Tong, J. (2022) J. Mol. Liq. 349, 118200.",commercial source
1-(2-methoxyethyl)-3-methylimidazolium propanoate,AApKLy,zbYly,45620.63932,21865543.48,0.222292768,CCC(=O)[O-].COCCn1cc[n+](C)c1,1-(2-methoxyethyl)-3-methylimidazolium,propanoate,CCC(=O)[O-],CCC(=O)[O-],"wang, J.; Li, Y.; Guo, C.; Zhao, Y.; Tong, J. (2022) J. Mol. Liq. 349, 118200.",commercial source
1-(2-methoxyethyl)-3-methylimidazolium acetate,AAmaDQ,CxylS,39529.96031,2418879.437,0.286998384,CC(=O)[O-].C[N+]1=CN(C=C1)CCOC,1-(2-methoxyethyl)-3-methylimidazolium,acetate,CC(=O)[O-],CC(=O)[O-],"wang, J.; Li, Y.; Guo, C.; Zhao, Y.; Tong, J. (2022) J. Mol. Liq. 349, 118200.",commercial source
1-butyl-3-methylimidazolium dicyanamide,AAnYjG,LLJXx,24743.16046,18920.17655,0.874721527,CCCCN1C=C[N+](=C1)C.C(=[N-])=NC#N,1-butyl-3-methylimidazolium,dicyanamide,CCCCN1C=C[N+](=C1)C,C(#N)NC#N,"Asenbauer, J.; Hassen, N. B.; McCloskey, B. D.; Prausnitz, J. M. (2017) Electrochim. Acta 247, 1038-1043.",commercial source
bis(diethylamino)(dimethylamino)cyclopropenium dicyanamide,ABDsRl,TofjZ,19775.43594,1948.278538,0.668269722,CCN(CC)c1c(N(CC)CC)[c+]1N(C)C.N#C[N-]C#N,bis(diethylamino)(dimethylamino)cyclopropenium,dicyanamide,CCN(CC)c1c(N(CC)CC)[c+]1N(C)C,C(#N)NC#N,"Curnow, O. J.; Polson, M. I. J.; Walst, K. J.; Yunis, R. (2018) RSC Adv. 8(50), 28313-28322.",synthesized by the authors
1-octylpyridinium bis((trifluoromethyl)sulfonyl)amide,ABmsed,fOmGK,32206.25168,32224.03459,0.073379505,CCCCCCCC[n+]1ccccc1.O=S(=O)([N-]S(=O)(=O)C(F)(F)F)C(F)(F)F,1-octylpyridinium,bis((trifluoromethyl)sulfonyl)amide,CCCCCCCC[N+]1=CC=CC=C1,O=S(=O)([N-]S(=O)(=O)C(F)(F)F)C(F)(F)F,"Dzida, M.; Musial, M.; Zorebski, E.; Zorebski, M.; Jacquemin, J.; Goodrich, P.; Wojnarowska, Z.; Paluch, M. (2019) J. Mol. Liq. 278, 401-412.",synthesized by the authors
1-hexylpyridinium bis(trifluromethylsulfonyl)imide,ABhYBm,UoFnq,29136.86775,16389.4313,0.12874236,CCCCCC[n+]1ccccc1.O=S(=O)([N-]S(=O)(=O)C(F)(F)F)C(F)(F)F,1-hexylpyridinium,bis(trifluromethylsulfonyl)imide,CCCCCC[N+]1=CC=CC=C1,O=S(=O)([N-]S(=O)(=O)C(F)(F)F)C(F)(F)F,"Dzida, M.; Musial, M.; Zorebski, E.; Zorebski, M.; Jacquemin, J.; Goodrich, P.; Wojnarowska, Z.; Paluch, M. (2019) J. Mol. Liq. 278, 401-412.",synthesized by the authors
1-butylpyridinium bis[(trifluoromethyl)sulfonyl]imide,ABcDLM,ornuz,26782.40155,11948.84847,0.242656104,CCCC[n+]1ccccc1.O=S(=O)([N-]S(=O)(=O)C(F)(F)F)C(F)(F)F,1-butylpyridinium,bis[(trifluoromethyl)sulfonyl]imide,CCCC[N+]1=CC=CC=C1,O=S(=O)([N-]S(=O)(=O)C(F)(F)F)C(F)(F)F,"Dzida, M.; Musial, M.; Zorebski, E.; Zorebski, M.; Jacquemin, J.; Goodrich, P.; Wojnarowska, Z.; Paluch, M. (2019) J. Mol. Liq. 278, 401-412.",synthesized by the authors
1-ethyl-3-methylimidazolium bromide,AAkmTS,lKMqQ,27506.73554,23655.26664,0.358664283,CCN1C=C[N+](=C1)C.[Br-],1-ethyl-3-methylimidazolium,bromide,CCN1C=C[N+](=C1)C,[Br-],"Every, H. A.; Bishop, A. G.; MacFarlane, D. R.; Oradd, G.; Forsyth, M. (2004) Phys. Chem. Chem. Phys. 6(8), 1758-1765.",synthesized by the authors
2-methylpyridinium triflate,AAuohk,ZowWw,24112.05904,8050.676404,0.48011728,Cc1cccc[nH+]1.O=S(=O)([O-])C(F)(F)F,2-methylpyridinium,triflate,Cc1cccc[nH+]1,C(F)(F)(F)S(=O)(=O)[O-],"Hasani, M.; Amin, S. A.; Yarger, J. L.; Davidowski, S. K.; Angell, C. A. (2019) J. Phys. Chem. B 123(8), 1815-1821.",synthesized by the authors
1-methyl-1-propylpyrrolidinium bis[(trifluoromethyl)sulfonyl]imide,ABabds,gunWL,21948.86603,3195.29675,0.456060302,CCC[N+]1(C)CCCC1.O=S(=O)([N-]S(=O)(=O)C(F)(F)F)C(F)(F)F,1-methyl-1-propylpyrrolidinium,bis[(trifluoromethyl)sulfonyl]imide,CCC[N+]1(CCCC1)C,O=S(=O)([N-]S(=O)(=O)C(F)(F)F)C(F)(F)F,"Huang, Q.; Loureno, T. C.; Costa, L. T.; Zhang, Y.; Maginn, E. J.; Gurkan, B. (2019) J. Phys. Chem. B 123(2), 516-527.",commercial source
1-butyl-1-methylpyrrolidinium tris(pentafluoroethyl)trifluorophosphate,ACIwcZ,hmbDZ,34315.62181,119525.5824,0.116222312,CCCC[N+]1(CCCC1)C.C(C(F)(F)[P-](C(C(F)(F)F)(F)F)(C(C(F)(F)F)(F)F)(F)(F)F)(F)(F)F,1-butyl-1-methylpyrrolidinium,tris(pentafluoroethyl)trifluorophosphate,CCCC[N+]1(CCCC1)C,C(C(F)(F)[P-](C(C(F)(F)F)(F)F)(C(C(F)(F)F)(F)F)(F)(F)F)(F)(F)F,"Kang, C. S. M.; Zhang, X.; MacFarlane, D. R. (2019) J. Phys. Chem. C 123(35), 21376-21385.",commercial source
lithium bis((trifluoromethyl)sulfonyl)amide,ABDKGa,iuusn,58830.37941,116935.0285,5.76e-06,[Li+].C(F)(F)(F)S(=O)(=O)[N-]S(=O)(=O)C(F)(F)F,lithium,bis((trifluoromethyl)sulfonyl)amide,[Li],C(F)(F)(F)S(=O)(=O)[N-]S(=O)(=O)C(F)(F)F,"Kubota, K.; Tamaki, K.; Nohira, T.; Goto, T.; Hagiwara, R. (2010) Electrochim. Acta 55(3), 1113-1119.",commercial source
"N-butyl-N,N-dimethyl-N-ethylammonium bis(trifluoromethanesulfonyl)amide",ABavep,kzjQh,24735.10531,3455.657396,0.160282677,CCCC[N+](C)(C)CC.O=S(=O)([N-]S(=O)(=O)C(F)(F)F)C(F)(F)F,"N-butyl-N,N-dimethyl-N-ethylammonium",bis(trifluoromethanesulfonyl)amide,CCCC[N+](C)(C)CC,O=S(=O)([N-]S(=O)(=O)C(F)(F)F)C(F)(F)F,"Le, L. T.M.; Vo, T. D.; Ngo, K. H.P.; Okada, S.; Alloin, F.; Garg, A.; Le, P. M.L. (2018) J. Mol. Liq. 271, 769-777.",synthesized by the authors
"N-ethyl-N,N-dimethyl-1-propanaminium 1,1,1-trifluoro-N-[(trifluoromethyl)sulfonyl]methanesulfonamide",ABYLaO,KkMqp,24702.69745,5018.607821,0.235839799,CCC[N+](C)(C)CC.O=S(=O)([N-]S(=O)(=O)C(F)(F)F)C(F)(F)F,"N-ethyl-N,N-dimethyl-1-propanaminium","1,1,1-trifluoro-N-[(trifluoromethyl)sulfonyl]methanesulfonamide",CCC[N+](C)(C)CC,C(F)(F)(F)S(=O)(=O)NS(=O)(=O)C(F)(F)F,"Le, L. T.M.; Vo, T. D.; Ngo, K. H.P.; Okada, S.; Alloin, F.; Garg, A.; Le, P. M.L. (2018) J. Mol. Liq. 271, 769-777.",synthesized by the authors
1-propylpyridinium bis((trifluoromethyl)sulfonyl)amide,ABZTgF,oGxEx,22627.97137,4308.728239,0.467605325,CCC[n+]1ccccc1.O=S(=O)([N-]S(=O)(=O)C(F)(F)F)C(F)(F)F,1-propylpyridinium,bis((trifluoromethyl)sulfonyl)amide,CCC[n+]1ccccc1,O=S(=O)([N-]S(=O)(=O)C(F)(F)F)C(F)(F)F,"Liu, Q.-S.; Yang, M.; Li, P.-P.; Sun, S.-S.; Welz-Biermann, U.; Tan, Z.-C.; Zhang, Q.-G. (2011) J. Chem. Eng. Data 56(11), 4094-4101.",synthesized by the authors
tetraethylammonium stearate,ABbdFc,tnHMP,49332.20763,987422.8593,0.002245916,CC[N+](CC)(CC)CC.CCCCCCCCCCCCCCCCCC(=O)[O-],tetraethylammonium,stearate,CC[N+](CC)(CC)CC,CCCCCCCCCCCCCCCCCC(=O)[O-],"Myrdek, Thomas; Popescu, Crisan; Kunz, Werner (2021) J. Mol. Liq. 322, 114947.",synthesized by the authors
tetrabutylammonium stearate,ABxHEV,PudIm,46175.01184,208363.4648,0.001693789,CCCC[N+](CCCC)(CCCC)CCCC.CCCCCCCCCCCCCCCCCC(=O)[O-],tetrabutylammonium,stearate,CCCC[N+](CCCC)(CCCC)CCCC,CCCCCCCCCCCCCCCCCC(=O)[O-],"Myrdek, Thomas; Popescu, Crisan; Kunz, Werner (2021) J. Mol. Liq. 322, 114947.",synthesized by the authors
1-ethyl-3-methylimidazolium acetate,AAgmaR,RUjQM,37328.66031,1003115.247,0.289260142,CCN1C=C[N+](=C1)C.CC(=O)[O-],1-ethyl-3-methylimidazolium,acetate,CCN1C=C[N+](=C1)C,CC(=O)[O-],"Oliveira, F. S.; Rebelo, L. P. N.; Marrucho, I. M. (2015) J. Chem. Eng. Data 60(3), 781-789.",commercial source
"1,3-dimethylimidazolium bis((trifluoromethyl)sulfonyl)amide",ABUcyg,JUpzZ,21320.63754,4283.450226,0.787719853,Cn1cc[n+](C)c1.O=S(=O)([N-]S(=O)(=O)C(F)(F)F)C(F)(F)F,"1,3-dimethylimidazolium",bis((trifluoromethyl)sulfonyl)amide,CN1C=C[N+](=C1)C,O=S(=O)([N-]S(=O)(=O)C(F)(F)F)C(F)(F)F,"Papovic, Snezana; Gadzuric, Slobodan; Bester-Rogac, Marija; Jovic, Branislav; Vranes, Milan (2018) J. Chem. Thermodyn. 116, 330-340.",commercial source
N-butyltropinium L-glutamate,ABOMgM,kWnZI,89307.73929,14759536792.0,3.33e-06,N[C@@H](CCC(=O)O)C(=O)[O-].[H][C@]12CC[C@]([H])(C[C@H](O)C1)[N+]2(C)CCCC,N-butyltropinium,L-glutamate,N[C@@H](CCC(=O)O)C(=O)[O-],C(CC(=O)O)C(C(=O)O)N,"Peng, L.; Wang, Z.; Zhu, H.; Zeng, T.; Zhou, W.; Yao, S.; Song, H. (2021) J. Mol. Liq. 342, 116938.",synthesized by the authors
N-methyl-N-butylpyrrolidinium cyano(trifluoromethanesulfonyl)imide,ABIhFX,IaQiy,24958.29131,10940.3891,0.463752224,CCCC[N+]1(C)CCCC1.N#C[N-]S(=O)(=O)C(F)(F)F,N-methyl-N-butylpyrrolidinium,cyano(trifluoromethanesulfonyl)imide,CCCC[N+]1(C)CCCC1,N#C[N-]S(=O)(=O)C(F)(F)F,"Penley, Drace; Wang, Xiaoyu; Lee, Yun-Yang; Garaga, Mounesha N.; Ghahremani, Raziyeh; Greenbaum, Steve; Maginn, Edward J.; Gurkan, Burcu (2022) J. Chem. Eng. Data 67(8), 1810-1823.",commercial source
1-ethyl-3-methylimidazolium acetate,AAgmaR,hTpyV,38997.47236,1992404.245,0.293045955,CCN1C=C[N+](=C1)C.CC(=O)[O-],1-ethyl-3-methylimidazolium,acetate,CCN1C=C[N+](=C1)C,CC(=O)[O-],"Pereiro, A. B.; Araujo, J. M. M.; Oliveira, F. S.; Bernardes, C. E. S.; Esperanca, J. M. S. S.; Lopes, J. N. C.; Marrucho, I. M.; Rebelo, L. P. N. (2012) Chem. Commun. 48, 3656-3658.",commercial source