Name,Structure Graph ID,ID,Ea (J/mol),A,RT_conductivity (S/m),SMILES,Cation Name,Anion Name,Cation SMILES,Anion SMILES,reference,source
3-butylthiazolium bis((trifluoromethyl)sulfonyl)amide,ABdLlk,nOtHP,29522.0695,32917.17883,0.221356362,CCCC[n+]1ccsc1.O=S(=O)([N-]S(=O)(=O)C(F)(F)F)C(F)(F)F,3-butylthiazolium,bis((trifluoromethyl)sulfonyl)amide,CCCC[n+]1ccsc1,O=S(=O)([N-]S(=O)(=O)C(F)(F)F)C(F)(F)F,"Fei, Y.; Chen, Z.; Zhang, J.; Yu, M.; Kong, J.; Wu, Z.; Cao, J.; Zhang, J. (2021) J. Mol. Liq. 342, 117553.",synthesized by the authors
3-butyl-4-methylthiazolium bis((trifluoromethyl)sulfonyl)amide,ABfwNa,YlMSL,31479.86044,57089.27681,0.174266827,CCCC[n+]1cscc1C.O=S(=O)([N-]S(=O)(=O)C(F)(F)F)C(F)(F)F,3-butyl-4-methylthiazolium,bis((trifluoromethyl)sulfonyl)amide,CCCC[n+]1cscc1C,O=S(=O)([N-]S(=O)(=O)C(F)(F)F)C(F)(F)F,"Fei, Y.; Chen, Z.; Zhang, J.; Yu, M.; Kong, J.; Wu, Z.; Cao, J.; Zhang, J. (2021) J. Mol. Liq. 342, 117553.",synthesized by the authors
3-butyl-4-methylthiazolium difluoro(oxalato)borate,ABESvp,OCgKh,35088.42523,165649.7997,0.117929572,CCCC[n+]1cscc1C.O=C1O[B-](F)(F)OC1=O,3-butyl-4-methylthiazolium,difluoro(oxalato)borate,CCCC[n+]1cscc1C,O=C1O[B-](F)(F)OC1=O,"Fei, Y.; Chen, Z.; Zhang, J.; Yu, M.; Kong, J.; Wu, Z.; Cao, J.; Zhang, J. (2021) J. Mol. Liq. 342, 117553.",synthesized by the authors
3-butylthiazolium difluoro(oxalato)borate,ABBijq,amPFC,33656.3342,110948.6263,0.140753496,CCCC[n+]1ccsc1.O=C1O[B-](F)(F)OC1=O,3-butylthiazolium,difluoro(oxalato)borate,CCCC[n+]1ccsc1,O=C1O[B-](F)(F)OC1=O,"Fei, Y.; Chen, Z.; Zhang, J.; Yu, M.; Kong, J.; Wu, Z.; Cao, J.; Zhang, J. (2021) J. Mol. Liq. 342, 117553.",synthesized by the authors
1-(2-hydroxyethyl)-3-methylimidazolium nonafluoro-1-butanesulfonate,ABdylr,UciTB,46484.98036,5217784.451,0.037429736,C[n+]1ccn(CCO)c1.O=S(=O)([O-])C(F)(F)C(F)(F)C(F)(F)C(F)(F)F,1-(2-hydroxyethyl)-3-methylimidazolium,nonafluoro-1-butanesulfonate,C[N+]1=CN(C=C1)CCO,O=S(=O)([O-])C(F)(F)C(F)(F)C(F)(F)C(F)(F)F,"Ferreira, Margarida L.; Araujo, Joao M. M.; Vega, Lourdes F.; Llovell, Felix; Pereiro, Ana B. (2020) J. Mol. Liq. 302, 112489.",synthesized by the authors
1-(2-hydroxyethyl)-3-methylimidazolium perfluoropentanoate,ABXCRi,sfAed,52529.69848,48855234.04,0.030591023,C[N+]1=CN(C=C1)CCO.C(=O)(C(C(C(C(F)(F)F)(F)F)(F)F)(F)F)[O-],1-(2-hydroxyethyl)-3-methylimidazolium,perfluoropentanoate,C[N+]1=CN(C=C1)CCO,C(=O)(C(C(C(C(F)(F)F)(F)F)(F)F)(F)F)[O-],"Ferreira, Margarida L.; Araujo, Joao M. M.; Vega, Lourdes F.; Llovell, Felix; Pereiro, Ana B. (2020) J. Mol. Liq. 302, 112489.",synthesized by the authors
1-hexyl-3-methylimidazolium bis[(trifluoromethyl)sulfonyl]imide,ABiCtA,BJDYI,32515.5221,103872.5918,0.20879062,CCCCCCn1cc[n+](C)c1.O=S(=O)([N-]S(=O)(=O)C(F)(F)F)C(F)(F)F,1-hexyl-3-methylimidazolium,bis[(trifluoromethyl)sulfonyl]imide,CCCCCCN1C=C[N+](=C1)C,O=S(=O)([N-]S(=O)(=O)C(F)(F)F)C(F)(F)F,"Kandil, M. E.; Marsh, K. N.; Goodwin, A. R. H. (2007) J. Chem. Eng. Data 52(6), 2382-2387.",commercial source
"1-phenylethan-1-ammonium 2,5-dihydroxybenzoate",ABAxjl,gdWsr,28582.6873,1870.11197,0.018370408,CC([NH3+])c1ccccc1.O=C([O-])c1cc(O)ccc1O,1-phenylethan-1-ammonium,"2,5-dihydroxybenzoate",CC([NH3+])c1ccccc1,C1=CC(=C(C=C1O)C(=O)O)[O-],"Malfait, B.; Jani, A.; Morineau, D. (2022) J. Mol. Liq. 349, 118488.",commercial source
1-phenylethan-1-ammonium 2-(4-hydroxyphenylazo)benzoate,ABRuZU,OQxpQ,24787.5275,464.9424542,0.021114006,CC([NH3+])c1ccccc1.O=C([O-])c1ccccc1/N=N/c1ccc(O)cc1,1-phenylethan-1-ammonium,2-(4-hydroxyphenylazo)benzoate,CC([NH3+])c1ccccc1,O=C([O-])c1ccccc1/N=N/c1ccc(O)cc1,"Malfait, B.; Jani, A.; Morineau, D. (2022) J. Mol. Liq. 349, 118488.",commercial source
1-butyl-1-methylpyrrolidinium bis[(trifluoromethyl)sulfonyl]imide,ABdMNo,JwQGV,28245.66299,24180.57431,0.27212297,CCCC[N+]1(C)CCCC1.O=S(=O)([N-]S(=O)(=O)C(F)(F)F)C(F)(F)F,1-butyl-1-methylpyrrolidinium,bis[(trifluoromethyl)sulfonyl]imide,CCCC[N+]1(CCCC1)C,O=S(=O)([N-]S(=O)(=O)C(F)(F)F)C(F)(F)F,"Neale, A. R.; Schutter, C.; Wilde, P.; Goodrich, P.; Hardacre, C.; Passerini, S.; Balducci, A.; Jacquemin, J. (2017) J. Chem. Eng. Data 62(1), 376-390.",synthesized by the authors
1-butyl-3-methylimidazolium acetate,AAmGQS,hwTpj,46851.69361,6253131.099,0.038688261,CCCCN1C=C[N+](=C1)C.CC(=O)[O-],1-butyl-3-methylimidazolium,acetate,CCCCN1C=C[N+](=C1)C,CC(=O)[O-],"Pinkert, A.; Ang, K. L.; Marsh, K. N.; Pang, S. (2011) Phys. Chem. Chem. Phys. 13, 5136-5143.",commercial source
1-ethyl-3-methylimidazolium acetate,AAgmaR,AHiFI,33750.79861,282567.9902,0.345072106,CCN1C=C[N+](=C1)C.CC(=O)[O-],1-ethyl-3-methylimidazolium,acetate,CCN1C=C[N+](=C1)C,CC(=O)[O-],"Pinkert, A.; Ang, K. L.; Marsh, K. N.; Pang, S. (2011) Phys. Chem. Chem. Phys. 13, 5136-5143.",commercial source
1-hexadecyl-3-methylimidazolium tetrafluoroborate,ABXrSr,DpzaC,196461.8803,3.98e+28,1.51e-06,[B-](F)(F)(F)F.CCCCCCCCCCCCCCCCN1C=C[N+](=C1)C,1-hexadecyl-3-methylimidazolium,tetrafluoroborate,CCCCCCCCCCCCCCCCN1C=C[N+](=C1)C,[B-](F)(F)(F)F,"Vila, J.; Fernandez-Castro, B.; Rilo, E.; Carrete, J.; Dominguez-Perez, M.; Rodriguez, J. R.; Garcia, M.; Varela, L. M.; Cabeza, O. (2012) Fluid Phase Equilib. 320, 1-10.",commercial source
butylammonium formate,AAWvbn,LYLaK,22570.78771,2988.495526,0.331895723,CCCC[NH3+].C(=O)[O-],butylammonium,formate,CCCC[NH3+],C(=O)[O-],"Wei, Ying; Xu, Tongtong; Zhang, Xinyuan; Di, Yang; Zhang, Qingguo (2018) J. Chem. Eng. Data 63(12), 4475-4483.",synthesized by the authors
1-butyl-3-methylimidazolium acetate,AAmGQS,Iwxnr,42700.07033,1766610.502,0.058343958,CCCCN1C=C[N+](=C1)C.CC(=O)[O-],1-butyl-3-methylimidazolium,acetate,CCCCN1C=C[N+](=C1)C,CC(=O)[O-],"Xu, A.; Zhang, Y.; Li, Z.; Wang, J. (2012) J. Chem. Eng. Data 57(11), 3102-3108.",synthesized by the authors
3-butyl-1-methyl-1H-imidazolium propanoate,AAoqOm,ISDIK,40397.74602,653988.0638,0.054676048,CCC(=O)[O-].CCCCn1cc[n+](C)c1,3-butyl-1-methyl-1H-imidazolium,propanoate,CCC(=O)[O-],CCC(=O)[O-],"Xu, A.; Zhang, Y.; Li, Z.; Wang, J. (2012) J. Chem. Eng. Data 57(11), 3102-3108.",synthesized by the authors
3-butyl-1-methyl-1H-imidazolium butanoate,AArbVY,SNrvU,44167.40387,1733135.32,0.031667045,CCCC(=O)[O-].CCCC[n+]1ccn(C)c1,3-butyl-1-methyl-1H-imidazolium,butanoate,CCCC(=O)[O-],CCCC(=O)[O-],"Xu, A.; Zhang, Y.; Li, Z.; Wang, J. (2012) J. Chem. Eng. Data 57(11), 3102-3108.",synthesized by the authors
3-butyl-1-methylimidazolium benzoate,AAyDkU,jsGho,55308.48171,60590076.43,0.01236618,CCCCN1C=C[N+](=C1)C.C1=CC=C(C=C1)C(=O)[O-],3-butyl-1-methylimidazolium,benzoate,CCCCN1C=C[N+](=C1)C,C1=CC=C(C=C1)C(=O)[O-],"Xu, A.; Zhang, Y.; Lu, W.; Yao, K.; Wang, J. (2015) J. Chem. Eng. Data 60(3), 580-585.",synthesized by the authors
1-butyl-3-methylimidazolium glycolate,AApKJX,JdDoP,47565.80792,9895821.629,0.045900684,CCCCN1C=C[N+](=C1)C.C(C(=O)[O-])O,1-butyl-3-methylimidazolium,glycolate,CCCCN1C=C[N+](=C1)C,C(C(=O)[O-])O,"Xu, A.; Zhang, Y.; Lu, W.; Yao, K.; Wang, J. (2015) J. Chem. Eng. Data 60(3), 580-585.",synthesized by the authors
1-butyl-3-methylimidazolium lactate,AAruWK,uVxUZ,48712.23521,9883261.801,0.028867625,CCCCN1C=C[N+](=C1)C.CC(C(=O)[O-])O,1-butyl-3-methylimidazolium,lactate,CCCCN1C=C[N+](=C1)C,CC(C(=O)[O-])O,"Xu, A.; Zhang, Y.; Lu, W.; Yao, K.; Wang, J. (2015) J. Chem. Eng. Data 60(3), 580-585.",synthesized by the authors
1-butyl-3-methylimidazolium glycinate,AApAci,BqFcy,63016.90372,589424035.9,0.005366976,CCCCN1C=C[N+](=C1)C.C(C(=O)[O-])N,1-butyl-3-methylimidazolium,glycinate,CCCCN1C=C[N+](=C1)C,C(C(=O)[O-])N,"Xu, A.; Zhang, Y.; Lu, W.; Yao, K.; Wang, J. (2015) J. Chem. Eng. Data 60(3), 580-585.",synthesized by the authors
1-butyl-3-methylimidazolium L-serinate,AAupHc,IsRSU,65460.0896,1193227462.0,0.004054839,CCCCN1C=C[N+](=C1)C.C(C(C(=O)[O-])N)O,1-butyl-3-methylimidazolium,L-serinate,CCCCN1C=C[N+](=C1)C,C(C(C(=O)[O-])N)O,"Zheng, Ling; Pan, Yi; Ji, Hong-Xiang; Ma, Xiao-Xue; Xing, Nan-Nan; Guan, Wei (2016) Acta Phys. Chim. Sin. 32(11), 2663-2670.",synthesized by the authors
1-pentylpyridinium dicyanamide,AApenP,YLsFQ,26810.62908,29426.14184,0.590816979,CCCCC[n+]1ccccc1.N#C[N-]C#N,1-pentylpyridinium,dicyanamide,CCCCC[n+]1ccccc1,C(#N)NC#N,"Zheng, Ling; Pan, Yi; Ji, Hong-Xiang; Ma, Xiao-Xue; Xing, Nan-Nan; Guan, Wei (2016) Acta Phys. Chim. Sin. 32(11), 2663-2670.",synthesized by the authors
1-methyl-3-propylimidazolium L-serinate,AAsEKs,GyEwl,62525.6412,1417427202.0,0.01573522,CCC[n+]1ccn(C)c1.N[C@@H](CO)C(=O)[O-],1-methyl-3-propylimidazolium,L-serinate,CCC[n+]1ccn(C)c1,C(C(C(=O)[O-])N)O,"Zheng, Ling; Pan, Yi; Ji, Hong-Xiang; Ma, Xiao-Xue; Xing, Nan-Nan; Guan, Wei (2016) Acta Phys. Chim. Sin. 32(11), 2663-2670.",synthesized by the authors
"N-ethyl-N-methyl-N,N-bis(2- hydroxyethyl)ammonium bis(trifluoromethanesulfonyl)amide",ABeTmy,fkpvw,42154.47011,1759171.1,0.07240249,CC[N+](C)(CCO)CCO.O=S(=O)([N-]S(=O)(=O)C(F)(F)F)C(F)(F)F,"N-ethyl-N-methyl-N,N-bis(2-",hydroxyethyl)ammonium,CC[N+](C)(CCO)CCO,O=S(=O)([N-]S(=O)(=O)C(F)(F)F)C(F)(F)F,"de Ferro, A. M.; Reis, P. M.; Freitas, A. A.; Lopes, J. N. C.; Rebelo, L. P. N.; Shimizu, K.; Esperanca, J. M. S. S. (2019) J. Chem. Eng. Data 64(11), 4932-4945.",synthesized by the authors
"N-butyl-N,N-dimethyl-N-ethylammonium bis(trifluoromethanesulfonyl)amide",ABavep,kiZUU,33153.60585,113308.2024,0.176066896,CCCC[N+](C)(C)CC.O=S(=O)([N-]S(=O)(=O)C(F)(F)F)C(F)(F)F,"N-butyl-N,N-dimethyl-N-ethylammonium",bis(trifluoromethanesulfonyl)amide,CCCC[N+](C)(C)CC,O=S(=O)([N-]S(=O)(=O)C(F)(F)F)C(F)(F)F,"de Ferro, A. M.; Reis, P. M.; Freitas, A. A.; Lopes, J. N. C.; Rebelo, L. P. N.; Shimizu, K.; Esperanca, J. M. S. S. (2019) J. Chem. Eng. Data 64(11), 4932-4945.",synthesized by the authors
"N-ethyl-N,N-dimethyl-2-methoxyethylammonium bis(trifluoromethylsulfonyl)imide",ABbPbH,Iygxl,29200.12441,36072.72993,0.276219217,CC[N+](C)(C)CCOC.C(F)(F)(F)S(=O)(=O)[N-]S(=O)(=O)C(F)(F)F,"N-ethyl-N,N-dimethyl-2-methoxyethylammonium",bis(trifluoromethylsulfonyl)imide,CC[N+](C)(C)CCOC,C(F)(F)(F)S(=O)(=O)NS(=O)(=O)C(F)(F)F,"de Ferro, A. M.; Reis, P. M.; Freitas, A. A.; Lopes, J. N. C.; Rebelo, L. P. N.; Shimizu, K.; Esperanca, J. M. S. S. (2019) J. Chem. Eng. Data 64(11), 4932-4945.",synthesized by the authors
"N-3-hydroxypropyl-N,N-dimethyl-N-ethylammonium bis(trifluoromethanesulfonyl)amide",ABbPMI,JtJzN,38286.21117,610009.576,0.119538948,CC[N+](C)(C)CCCO.O=S(=O)([N-]S(=O)(=O)C(F)(F)F)C(F)(F)F,"N-3-hydroxypropyl-N,N-dimethyl-N-ethylammonium",bis(trifluoromethanesulfonyl)amide,CC[N+](C)(C)CCCO,O=S(=O)([N-]S(=O)(=O)C(F)(F)F)C(F)(F)F,"de Ferro, A. M.; Reis, P. M.; Freitas, A. A.; Lopes, J. N. C.; Rebelo, L. P. N.; Shimizu, K.; Esperanca, J. M. S. S. (2019) J. Chem. Eng. Data 64(11), 4932-4945.",synthesized by the authors
"N-methyl-N,N,N-tris(2-hydroxyethyl)ammonium bis(trifluoromethanesulfonyl)amide",ABhXIx,cDldv,50379.92636,22581314.98,0.033657114,C[N+](CCO)(CCO)CCO.O=S(=O)([N-]S(=O)(=O)C(F)(F)F)C(F)(F)F,"N-methyl-N,N,N-tris(2-hydroxyethyl)ammonium",bis(trifluoromethanesulfonyl)amide,C[N+](CCO)(CCO)CCO,O=S(=O)([N-]S(=O)(=O)C(F)(F)F)C(F)(F)F,"de Ferro, A. M.; Reis, P. M.; Freitas, A. A.; Lopes, J. N. C.; Rebelo, L. P. N.; Shimizu, K.; Esperanca, J. M. S. S. (2019) J. Chem. Eng. Data 64(11), 4932-4945.",synthesized by the authors
"N-ethyl-N,N,N-tris(2-hydroxyethyl)ammonium bis(trifluoromethanesulfonyl)amide",ABkHSN,qeeNW,53656.11892,61245555.26,0.024344798,CC[N+](CCO)(CCO)CCO.O=S(=O)([N-]S(=O)(=O)C(F)(F)F)C(F)(F)F,"N-ethyl-N,N,N-tris(2-hydroxyethyl)ammonium",bis(trifluoromethanesulfonyl)amide,CC[N+](CCO)(CCO)CCO,O=S(=O)([N-]S(=O)(=O)C(F)(F)F)C(F)(F)F,"de Ferro, A. M.; Reis, P. M.; Freitas, A. A.; Lopes, J. N. C.; Rebelo, L. P. N.; Shimizu, K.; Esperanca, J. M. S. S. (2019) J. Chem. Eng. Data 64(11), 4932-4945.",synthesized by the authors
"N-butyl-N,N,N-tris(2-hydroxyethyl)ammonium bis(trifluoromethanesulfonyl)amide",ABpcsl,TboWR,56603.70382,126368631.3,0.015294934,CCCC[N+](CCO)(CCO)CCO.O=S(=O)([N-]S(=O)(=O)C(F)(F)F)C(F)(F)F,"N-butyl-N,N,N-tris(2-hydroxyethyl)ammonium",bis(trifluoromethanesulfonyl)amide,CCCC[N+](CCO)(CCO)CCO,O=S(=O)([N-]S(=O)(=O)C(F)(F)F)C(F)(F)F,"de Ferro, A. M.; Reis, P. M.; Freitas, A. A.; Lopes, J. N. C.; Rebelo, L. P. N.; Shimizu, K.; Esperanca, J. M. S. S. (2019) J. Chem. Eng. Data 64(11), 4932-4945.",synthesized by the authors
1-ethyl-3-methylimidazolium bis((trifluoromethyl)sulfonyl)imide,ABXNZH,CcUgC,32064.7215,368737.5265,0.889013989,CCN1C=C[N+](=C1)C.C(F)(F)(F)S(=O)(=O)[N-]S(=O)(=O)C(F)(F)F,1-ethyl-3-methylimidazolium,bis((trifluoromethyl)sulfonyl)imide,CCN1C=C[N+](=C1)C,CCCCN1C=C[N+](=C1C)C.C(F)(F)(F)S(=O)(=O)[N-]S(=O)(=O)C(F)(F)F,"Aranowski, R.; Cichowska-Kopczynska, I.; Debski, B.; Jasinski, P. (2016) J. Mol. Liq. 221, 541-546.",commercial source
1-ethyl-3-methylimidazolium bis((trifluoromethyl)sulfonyl)imide,ABXNZH,gheLn,23813.48984,9268.085195,0.623469132,CCN1C=C[N+](=C1)C.C(F)(F)(F)S(=O)(=O)[N-]S(=O)(=O)C(F)(F)F,1-ethyl-3-methylimidazolium,bis((trifluoromethyl)sulfonyl)imide,CCN1C=C[N+](=C1)C,CCCCN1C=C[N+](=C1C)C.C(F)(F)(F)S(=O)(=O)[N-]S(=O)(=O)C(F)(F)F,"Bonhote, P.; Dias, A.-P.; Papageorgiou, N.; Kalyanasundaram, K.; Gratzel, M. (1996) Inorg. Chem. 35(5), 1168-1178.",synthesized by the authors
1-butyl-3-methylimidazolium trifluoromethanesulfonate,ABDWVo,eSpeG,29203.62354,30277.05677,0.231513052,CCCCN1C=C[N+](=C1)C.C(F)(F)(F)S(=O)(=O)[O-],1-butyl-3-methylimidazolium,trifluoromethanesulfonate,CCCCN1C=C[N+](=C1)C,C(F)(F)(F)S(=O)(=O)[O-],"Bonhote, P.; Dias, A.-P.; Papageorgiou, N.; Kalyanasundaram, K.; Gratzel, M. (1996) Inorg. Chem. 35(5), 1168-1178.",synthesized by the authors
1-butyl-3-methylimidazolium bis(trifluoromethylsulfonyl)imide,ABchwx,YXWYl,27670.86513,20122.26203,0.28554938,CCCCN1C=C[N+](=C1)C.C(F)(F)(F)S(=O)(=O)[N-]S(=O)(=O)C(F)(F)F,1-butyl-3-methylimidazolium,bis(trifluoromethylsulfonyl)imide,CCCCN1C=C[N+](=C1)C,C(F)(F)(F)S(=O)(=O)NS(=O)(=O)C(F)(F)F,"Bonhote, P.; Dias, A.-P.; Papageorgiou, N.; Kalyanasundaram, K.; Gratzel, M. (1996) Inorg. Chem. 35(5), 1168-1178.",synthesized by the authors
3-(2-amino-2-oxoethyl)-1-vinylimidazolium bis(trifluoromethylsulfonyl)amide,ABfHVl,wQFVG,68341.01382,11111551185.0,0.011810842,C=Cn1cc[n+](CC(N)=O)c1.O=S(=O)([N-]S(=O)(=O)C(F)(F)F)C(F)(F)F,3-(2-amino-2-oxoethyl)-1-vinylimidazolium,bis(trifluoromethylsulfonyl)amide,C=Cn1cc[n+](CC(N)=O)c1,O=S(=O)([N-]S(=O)(=O)C(F)(F)F)C(F)(F)F,"Cai, Y.; von Solms, N.; Zhang, S.; Thomsen, K. (2020) J. Chem. Eng. Data 65(2), 495-502.",synthesized by the authors
1-ethyl-3-methylimidazolium methanesulfonate,AAniqB,yTJnB,37478.25215,858726.8982,0.233122405,CCN1C=C[N+](=C1)C.CS(=O)(=O)[O-],1-ethyl-3-methylimidazolium,methanesulfonate,CCN1C=C[N+](=C1)C,CS(=O)(=O)[O-],"Cooper, Emanuel I.; O'Sullivan, Eugene J. M. (1992) Proc. - Electrochem. Soc. 16, 386-96.",synthesized by the authors
1-ethyl-3-methylimidazolium methanesulfonate,AAniqB,yIrxk,38530.08184,1266326.726,0.224901254,CCN1C=C[N+](=C1)C.CS(=O)(=O)[O-],1-ethyl-3-methylimidazolium,methanesulfonate,CCN1C=C[N+](=C1)C,CS(=O)(=O)[O-],"Cooper, Emanuel; Walker, George F. (1991) Joint ACS/MRS symposium, ""Frontiers in Materials Science: Chemistry and Technology"" Rochester: NY.",synthesized by the authors
tris(dihexylamino)cyclopropenium dicyanamide,ACVzOy,oPibS,32734.13372,11630.99166,0.021405507,CCCCCCN(CCCCCC)c1c(N(CCCCCC)CCCCCC)[c+]1N(CCCCCC)CCCCCC.N#C[N-]C#N,tris(dihexylamino)cyclopropenium,dicyanamide,CCCCCCN(CCCCCC)c1c(N(CCCCCC)CCCCCC)[c+]1N(CCCCCC)CCCCCC,C(#N)NC#N,"Curnow, O. J.; Polson, M. I. J.; Walst, K. J.; Yunis, R. (2018) RSC Adv. 8(50), 28313-28322.",synthesized by the authors
bis(diethylamino)(butylamino)cyclopropenium tetrafluoroborate,ABNMAv,ysuDB,38643.24819,273176.3396,0.04635133,CCCCN[c+]1c(N(CC)CC)c1N(CC)CC.F[B-](F)(F)F,bis(diethylamino)(butylamino)cyclopropenium,tetrafluoroborate,CCCCN[c+]1c(N(CC)CC)c1N(CC)CC,[B-](F)(F)(F)F,"Curnow, O. J.; Walst, K. J.; Yunis, R. (2020) ChemistrySelect 5(23), 6978-6986.",synthesized by the authors
bis(diethylamino)(butylamino)cyclopropenium bis(trifluoromethanesulfonyl)amide,AByVwu,FKFNs,30192.99792,18235.5139,0.093549031,CCCCN[c+]1c(N(CC)CC)c1N(CC)CC.O=S(=O)([N-]S(=O)(=O)C(F)(F)F)C(F)(F)F,bis(diethylamino)(butylamino)cyclopropenium,bis(trifluoromethanesulfonyl)amide,CCCCN[c+]1c(N(CC)CC)c1N(CC)CC,O=S(=O)([N-]S(=O)(=O)C(F)(F)F)C(F)(F)F,"Curnow, O. J.; Walst, K. J.; Yunis, R. (2020) ChemistrySelect 5(23), 6978-6986.",synthesized by the authors
bis(dimethylamino)-N-(methoxyethyl)aminocyclopropenium bis(trifluoromethanesulfonyl)amide,ABoAMm,EBBXH,33561.9762,89779.97812,0.118317363,COCCN[c+]1c(N(C)C)c1N(C)C.O=S(=O)([N-]S(=O)(=O)C(F)(F)F)C(F)(F)F,bis(dimethylamino)-N-(methoxyethyl)aminocyclopropenium,bis(trifluoromethanesulfonyl)amide,COCCN[c+]1c(N(C)C)c1N(C)C,O=S(=O)([N-]S(=O)(=O)C(F)(F)F)C(F)(F)F,"Curnow, O. J.; Walst, K. J.; Yunis, R. (2020) ChemistrySelect 5(23), 6978-6986.",synthesized by the authors
bis(dimethylamino)(allylamino)cyclopropenium bis(trifluoromethanesulfonyl)amide,ABkcZc,wlGZC,30422.23903,35587.07147,0.166437046,C=CCN[c+]1c(N(C)C)c1N(C)C.O=S(=O)([N-]S(=O)(=O)C(F)(F)F)C(F)(F)F,bis(dimethylamino)(allylamino)cyclopropenium,bis(trifluoromethanesulfonyl)amide,C=CCN[c+]1c(N(C)C)c1N(C)C,O=S(=O)([N-]S(=O)(=O)C(F)(F)F)C(F)(F)F,"Curnow, O. J.; Walst, K. J.; Yunis, R. (2020) ChemistrySelect 5(23), 6978-6986.",synthesized by the authors
bis(dimethylamino)(pentylamino)cyclopropenium bis(trifluoromethanesulfonyl)amide,ABqQnx,IXsyC,32636.40196,46649.68612,0.089305936,CCCCCN[c+]1c(N(C)C)c1N(C)C.O=S(=O)([N-]S(=O)(=O)C(F)(F)F)C(F)(F)F,bis(dimethylamino)(pentylamino)cyclopropenium,bis(trifluoromethanesulfonyl)amide,CCCCCN[c+]1c(N(C)C)c1N(C)C,O=S(=O)([N-]S(=O)(=O)C(F)(F)F)C(F)(F)F,"Curnow, O. J.; Walst, K. J.; Yunis, R. (2020) ChemistrySelect 5(23), 6978-6986.",synthesized by the authors
bis(dimethylamino)(butylamino)cyclopropenium bis(trifluoromethanesulfonyl)amide,ABngKL,BcQVD,31796.1583,46940.15135,0.126121346,CCCCN[c+]1c(N(C)C)c1N(C)C.O=S(=O)([N-]S(=O)(=O)C(F)(F)F)C(F)(F)F,bis(dimethylamino)(butylamino)cyclopropenium,bis(trifluoromethanesulfonyl)amide,CCCCN[c+]1c(N(C)C)c1N(C)C,O=S(=O)([N-]S(=O)(=O)C(F)(F)F)C(F)(F)F,"Curnow, O. J.; Walst, K. J.; Yunis, R. (2020) ChemistrySelect 5(23), 6978-6986.",synthesized by the authors
bis(dimethylamino)(propylamino)cyclopropenium bis(trifluoromethanesulfonyl)amide,ABkwpO,KbsEo,30991.84792,40394.42026,0.150135161,CCCN[c+]1c(N(C)C)c1N(C)C.O=S(=O)([N-]S(=O)(=O)C(F)(F)F)C(F)(F)F,bis(dimethylamino)(propylamino)cyclopropenium,bis(trifluoromethanesulfonyl)amide,CCCN[c+]1c(N(C)C)c1N(C)C,O=S(=O)([N-]S(=O)(=O)C(F)(F)F)C(F)(F)F,"Curnow, O. J.; Walst, K. J.; Yunis, R. (2020) ChemistrySelect 5(23), 6978-6986.",synthesized by the authors
bis(diethylamino)(butylamino)cyclopropenium dicyanamide,ABJMiS,SXOkx,32533.90355,87953.17711,0.175485435,CCCCN[c+]1c(N(CC)CC)c1N(CC)CC.N#C[N-]C#N,bis(diethylamino)(butylamino)cyclopropenium,dicyanamide,CCCCN[c+]1c(N(CC)CC)c1N(CC)CC,C(#N)NC#N,"Curnow, O. J.; Walst, K. J.; Yunis, R. (2020) ChemistrySelect 5(23), 6978-6986.",synthesized by the authors
1-ethyl-3-methylimidazolium iodide,AAtodn,QLSKv,21015.2034,3626.1849,0.754294143,CCN1C=C[N+](=C1)C.[I-],1-ethyl-3-methylimidazolium,iodide,CCN1C=C[N+](=C1)C,[I-],"Every, H. A.; Bishop, A. G.; MacFarlane, D. R.; Oradd, G.; Forsyth, M. (2004) Phys. Chem. Chem. Phys. 6(8), 1758-1765.",synthesized by the authors
trihexyl(isobutyl)phosphonium bromide,ABdXCC,HoiNp,48527.07207,169081.7761,0.000532168,CCCCCC[P+](CCCCCC)(CCCCCC)CC(C)C.[Br-],trihexyl(isobutyl)phosphonium,bromide,CCCCCC[P+](CCCCCC)(CCCCCC)CC(C)C,[Br-],"Garcia, A.; Torres-Gonzalez, L. C.; Padmasree, K. P.; Benavides-Garcia, M. G.; Sanchez, E. M. (2013) J. Mol. Liq. 178, 57-62.",synthesized by the authors
1-butyl-3-methylimidazolium hexafluorophosphate,ABChJv,cXOfW,34863.7252,234187.4209,0.182542209,CCCCN1C=C[N+](=C1)C.F[P-](F)(F)(F)(F)F,1-butyl-3-methylimidazolium,hexafluorophosphate,CCCCN1C=C[N+](=C1)C,F[P-](F)(F)(F)(F)F,"Geng, Y.; Chen, S.; Wang, T.; Yu, D.; Peng, C.; Liu, H.; Hu, Y. (2008) J. Mol. Liq. 143, 100-108.",synthesized by the authors