Name,Structure Graph ID,ID,Ea (J/mol),A,RT_conductivity (S/m),SMILES,Cation Name,Anion Name,Cation SMILES,Anion SMILES,reference,source
1-ethyl-3-methylimidazolium difluoromono(oxalato)borate,AAvjVr,oiAAE,34893.37284,703420.3872,0.541776745,CCn1cc[n+](C)c1.O=C1[O-]->[Ba+3](F)<-[O-]C1=O,1-ethyl-3-methylimidazolium,difluoromono(oxalato)borate,CCN1C=C[N+](=C1)C,O=C1[O-]->[Ba+3](F)<-[O-]C1=O,"Schreiner, C.; Zugmann, S.; Hartl, R.; Gores, H. J. (2010) J. Chem. Eng. Data 55(10), 4372-4377.",synthesized by the authors
tetraethylammonium difluorobis(trifluoroacetato)borate,ABZuRu,ZUYxn,27227.0898,23277.15713,0.395079741,CC[N+](CC)(CC)CC.O=C([O-]->[Ba+2](F)(F)<-[O-]C(=O)C(F)(F)F)C(F)(F)F,tetraethylammonium,difluorobis(trifluoroacetato)borate,CC[N+](CC)(CC)CC,O=C([O-]->[Ba+2](F)(F)<-[O-]C(=O)C(F)(F)F)C(F)(F)F,"Schreiner, C.; Zugmann, S.; Hartl, R.; Gores, H. J. (2010) J. Chem. Eng. Data 55(10), 4372-4377.",synthesized by the authors
1-butyl-3-methylimidazolium tetrafluoroborate,AArYBF,wWcQN,39236.93018,1200290.723,0.160284377,[B-](F)(F)(F)F.CCCCN1C=C[N+](=C1)C,1-butyl-3-methylimidazolium,tetrafluoroborate,CCCCN1C=C[N+](=C1)C,[B-](F)(F)(F)F,"Suarez, P. A. Z.; Einloft, S.; Dullius, J. E. L.; Souza, R. F. d.; Dupont, J. (1998) J. Chim. Phys. Phys.-Chim. Biol. 95(7), 1626-1639.",synthesized by the authors
1-butylpyridinium bis[(trifluoromethyl)sulfonyl]imide,ABcDLM,jSqoL,29030.62063,34059.17579,0.279258528,CCCC[n+]1ccccc1.O=S(=O)([N-]S(=O)(=O)C(F)(F)F)C(F)(F)F,1-butylpyridinium,bis[(trifluoromethyl)sulfonyl]imide,CCCC[N+]1=CC=CC=C1,O=S(=O)([N-]S(=O)(=O)C(F)(F)F)C(F)(F)F,"Tokuda, H.; Tsuzuki, S.; Susan, M. A. B. H.; Hayamizu, K.; Watanabe, M. (2006) J. Phys. Chem. B 110(39), 19593-19600.",synthesized by the authors
1-butyl-1-methylpyrrolidinium bis[(trifluoromethyl)sulfonyl]imide,ABdMNo,SMpLh,29175.34716,30852.17477,0.23861717,CCCC[N+]1(C)CCCC1.O=S(=O)([N-]S(=O)(=O)C(F)(F)F)C(F)(F)F,1-butyl-1-methylpyrrolidinium,bis[(trifluoromethyl)sulfonyl]imide,CCCC[N+]1(CCCC1)C,O=S(=O)([N-]S(=O)(=O)C(F)(F)F)C(F)(F)F,"Tokuda, H.; Tsuzuki, S.; Susan, M. A. B. H.; Hayamizu, K.; Watanabe, M. (2006) J. Phys. Chem. B 110(39), 19593-19600.",synthesized by the authors
1-butyl-3-methylimidazolium trifluoromethanesulfonate,ABDWVo,oJXWs,29901.27376,44157.90382,0.254824067,CCCCN1C=C[N+](=C1)C.C(F)(F)(F)S(=O)(=O)[O-],1-butyl-3-methylimidazolium,trifluoromethanesulfonate,CCCCN1C=C[N+](=C1)C,C(F)(F)(F)S(=O)(=O)[O-],"Tokuda, H.; Tsuzuki, S.; Susan, M. A. B. H.; Hayamizu, K.; Watanabe, M. (2006) J. Phys. Chem. B 110(39), 19593-19600.",synthesized by the authors
butyltrimethylammonium bis(trifluoromethylsulfonyl)imide,ABYLZx,SZOsv,32390.28106,82040.30587,0.17345219,CCCC[N+](C)(C)C.C(F)(F)(F)S(=O)(=O)[N-]S(=O)(=O)C(F)(F)F,butyltrimethylammonium,bis(trifluoromethylsulfonyl)imide,CCCC[N+](C)(C)C,C(F)(F)(F)S(=O)(=O)NS(=O)(=O)C(F)(F)F,"Tokuda, H.; Tsuzuki, S.; Susan, M. A. B. H.; Hayamizu, K.; Watanabe, M. (2006) J. Phys. Chem. B 110(39), 19593-19600.",synthesized by the authors
1-butyl-3-methylimidazolium bis(perfluoroethylsulfonyl)imide,ABvtlG,RVtin,33200.63741,81956.75142,0.124957136,CCCCN1C=C[N+](=C1)C.C(C(F)(F)S(=O)(=O)[N-]S(=O)(=O)C(C(F)(F)F)(F)F)(F)(F)F,1-butyl-3-methylimidazolium,bis(perfluoroethylsulfonyl)imide,CCCCN1C=C[N+](=C1)C,C(C(F)(F)S(=O)(=O)[N-]S(=O)(=O)C(C(F)(F)F)(F)F)(F)(F)F,"Tokuda, H.; Tsuzuki, S.; Susan, M. A. B. H.; Hayamizu, K.; Watanabe, M. (2006) J. Phys. Chem. B 110(39), 19593-19600.",synthesized by the authors
1-methyl-3-octylimidazolium bis(trifluoromethylsulfonyl)imide,ABnWNT,eOrpe,32463.44204,54104.43116,0.111062486,CCCCCCCCN1C=C[N+](=C1)C.C(F)(F)(F)S(=O)(=O)[N-]S(=O)(=O)C(F)(F)F,1-methyl-3-octylimidazolium,bis(trifluoromethylsulfonyl)imide,CCCCCCCCN1C=C[N+](=C1)C,C(F)(F)(F)S(=O)(=O)NS(=O)(=O)C(F)(F)F,"Tokuda, H.; Tsuzuki, S.; Susan, M. A. B. H.; Hayamizu, K.; Watanabe, M. (2006) J. Phys. Chem. B 110(39), 19593-19600.",synthesized by the authors
1-hexyl-3-methylimidazolium bis[(trifluoromethyl)sulfonyl]imide,ABiCtA,hYozn,30354.37125,38998.77226,0.187455965,CCCCCCn1cc[n+](C)c1.O=S(=O)([N-]S(=O)(=O)C(F)(F)F)C(F)(F)F,1-hexyl-3-methylimidazolium,bis[(trifluoromethyl)sulfonyl]imide,CCCCCCN1C=C[N+](=C1)C,O=S(=O)([N-]S(=O)(=O)C(F)(F)F)C(F)(F)F,"Tokuda, H.; Tsuzuki, S.; Susan, M. A. B. H.; Hayamizu, K.; Watanabe, M. (2006) J. Phys. Chem. B 110(39), 19593-19600.",synthesized by the authors
1-ethyl-3-methylimidazolium bis((trifluoromethyl)sulfonyl)imide,ABXNZH,YlTqo,21883.79156,5610.158146,0.822029427,CCN1C=C[N+](=C1)C.C(F)(F)(F)S(=O)(=O)[N-]S(=O)(=O)C(F)(F)F,1-ethyl-3-methylimidazolium,bis((trifluoromethyl)sulfonyl)imide,CCN1C=C[N+](=C1)C,CCCCN1C=C[N+](=C1C)C.C(F)(F)(F)S(=O)(=O)[N-]S(=O)(=O)C(F)(F)F,"Tokuda, H.; Tsuzuki, S.; Susan, M. A. B. H.; Hayamizu, K.; Watanabe, M. (2006) J. Phys. Chem. B 110(39), 19593-19600.",synthesized by the authors
1-butyl-3-methylimidazolium tetrafluoroborate,AArYBF,ksdTa,33054.19174,187203.3152,0.302794136,[B-](F)(F)(F)F.CCCCN1C=C[N+](=C1)C,1-butyl-3-methylimidazolium,tetrafluoroborate,CCCCN1C=C[N+](=C1)C,[B-](F)(F)(F)F,"Tokuda, H.; Tsuzuki, S.; Susan, M. A. B. H.; Hayamizu, K.; Watanabe, M. (2006) J. Phys. Chem. B 110(39), 19593-19600.",synthesized by the authors
1-butyl-3-methylimidazolium trifluoroacetate,AAwaEi,DpzNZ,31351.39654,82006.11,0.263641363,CCCCN1C=C[N+](=C1)C.C(=O)(C(F)(F)F)[O-],1-butyl-3-methylimidazolium,trifluoroacetate,CCCCN1C=C[N+](=C1)C,C(=O)(C(F)(F)F)[O-],"Tokuda, H.; Tsuzuki, S.; Susan, M. A. B. H.; Hayamizu, K.; Watanabe, M. (2006) J. Phys. Chem. B 110(39), 19593-19600.",synthesized by the authors
1-butyl-3-methylimidazolium hexafluorophosphate,ABChJv,SGWYI,38489.12727,667303.8129,0.120488345,CCCCN1C=C[N+](=C1)C.F[P-](F)(F)(F)(F)F,1-butyl-3-methylimidazolium,hexafluorophosphate,CCCCN1C=C[N+](=C1)C,F[P-](F)(F)(F)(F)F,"Tokuda, H.; Tsuzuki, S.; Susan, M. A. B. H.; Hayamizu, K.; Watanabe, M. (2006) J. Phys. Chem. B 110(39), 19593-19600.",synthesized by the authors
1-butyl-3-methylimidazolium bis(trifluoromethylsulfonyl)imide,ABchwx,nlsZh,27103.28608,18416.89961,0.328595812,CCCCN1C=C[N+](=C1)C.C(F)(F)(F)S(=O)(=O)[N-]S(=O)(=O)C(F)(F)F,1-butyl-3-methylimidazolium,bis(trifluoromethylsulfonyl)imide,CCCCN1C=C[N+](=C1)C,C(F)(F)(F)S(=O)(=O)NS(=O)(=O)C(F)(F)F,"Tokuda, H.; Tsuzuki, S.; Susan, M. A. B. H.; Hayamizu, K.; Watanabe, M. (2006) J. Phys. Chem. B 110(39), 19593-19600.",synthesized by the authors
"1,8-diazabicyclo[5.4.0]-undec-7-enium bis(trifluoromethanesulfonyl)amide",ABfRAV,pItev,39289.08238,220180.7598,0.028790349,C1CCC2=NCCC[NH+]2CC1.O=S(=O)([N-]S(=O)(=O)C(F)(F)F)C(F)(F)F,"1,8-diazabicyclo[5.4.0]-undec-7-enium",bis(trifluoromethanesulfonyl)amide,C1CCC2=NCCC[NH+]2CC1,O=S(=O)([N-]S(=O)(=O)C(F)(F)F)C(F)(F)F,"Triolo, A.; Paolone, A.; Sarra, A.; Trequattrini, F.; Palumbo, O.; BattistaAppetecchi, G.; Celso, F. L.; Chater, P.; Russina, O. (2022) J. Mol. Liq. 347, 117981.",synthesized by the authors
1-methylpiperidinium tetrafluoroborate,AAjxrt,dNuFP,26516.07487,27.67614713,0.000625795,[B-](F)(F)(F)F.C[NH+]1CCCCC1,1-methylpiperidinium,tetrafluoroborate,[B-](F)(F)(F)F,[B-](F)(F)(F)F,"Wu, T.-Y.; Sun, I.-W.; Gung, S.-T.; Lin, M.-W.; Chen, B.-K.; Wang, H. P.; Su, S.-G. (2011) J. Chem. Eng. Chin. Univ. 42, 513-522.",synthesized by the authors
1-allyl-3-(2-methoxyethyl)-1H-imidazol-3-ium bis((trifluoromethyl)sulfonyl)amide,ABiBfQ,ugMNG,22413.16629,3438.470992,0.406939668,COCC[N+]1=CN(C=C1)CC=C.C(F)(F)(F)S(=O)(=O)[N-]S(=O)(=O)C(F)(F)F,1-allyl-3-(2-methoxyethyl)-1H-imidazol-3-ium,bis((trifluoromethyl)sulfonyl)amide,COCC[N+]1=CN(C=C1)CC=C,C(F)(F)(F)S(=O)(=O)[N-]S(=O)(=O)C(F)(F)F,"Wu, T.-Y.; Wang, Y.-H.; Su, S.-G.; Lin, Y.-C.; Kuo, C.-W.; Chang, J.-K.; Sun, I.-W. (2015) J. Chem. Eng. Data 60(3), 471-483.",synthesized by the authors
1-(3-cyanopropyl)-3-methylimidazolium cyanocyanamide,AAperP,XfvjO,73487.72798,990503000000.0,0.132022107,C[n+]1ccn(CCCC#N)c1.N#C[N-]C#N,1-(3-cyanopropyl)-3-methylimidazolium,cyanocyanamide,C[n+]1ccn(CCCC#N)c1,C(#N)NC#N,"Zhang, Q.; Li, Z.; Zhang, J.; Zhang, S.; Zhu, L.; Yang, J.; Zhang, X.; Deng, Y. (2007) J. Phys. Chem. B 111, 2864-2872.",synthesized by the authors
1-butylpyridinium bis[(trifluoromethyl)sulfonyl]imide,ABcDLM,arIEO,31508.57839,99972.8127,0.301655083,CCCC[n+]1ccccc1.O=S(=O)([N-]S(=O)(=O)C(F)(F)F)C(F)(F)F,1-butylpyridinium,bis[(trifluoromethyl)sulfonyl]imide,CCCC[N+]1=CC=CC=C1,O=S(=O)([N-]S(=O)(=O)C(F)(F)F)C(F)(F)F,"Zhang, Q.-G.; Sun, S.-S.; Pitula, S.; Liu, Q.-S.; Welz-Biermann, U.; Zhang, J.-J. (2011) J. Chem. Eng. Data 56(12), 4659-4664.",synthesized by the authors
"2,3-dimethyl-1-propylimidazolium hydrogen sulfate",AAtWfx,vCLtV,36044.1294,267120.6687,0.129329577,CCCn1cc[n+](C)c1C.O=S(=O)([O-])O,"2,3-dimethyl-1-propylimidazolium",hydrogen,CCCn1cc[n+](C)c1C,[HH],"Zhang, Q.; Lan, Y.; Liu, H.; Zhang, X.; Zhang, X.; Wei, Y. (2016) J. Chem. Eng. Data 61(6), 2002-2012.",synthesized by the authors
"2,3-dimethyl-1-pentylimidazolium hydrogen sulfate",AAyrlL,wmhgK,41486.72293,1537477.112,0.082840905,CCCCCn1cc[n+](C)c1C.O=S(=O)([O-])O,"2,3-dimethyl-1-pentylimidazolium",hydrogen,CCCCCn1cc[n+](C)c1C,[HH],"Zhang, Q.; Lan, Y.; Liu, H.; Zhang, X.; Zhang, X.; Wei, Y. (2016) J. Chem. Eng. Data 61(6), 2002-2012.",synthesized by the authors
1-butyl-3-methylimidazolium acetate,AAmGQS,zFCyL,53380.43343,103142153.3,0.045821415,CCCCN1C=C[N+](=C1)C.CC(=O)[O-],1-butyl-3-methylimidazolium,acetate,CCCCN1C=C[N+](=C1)C,CC(=O)[O-],"Araujo, J. M. M.; Pereiro, A. B.; Alves, F.; Marrucho, I. M.; Rebelo, L. P. N. (2013) J. Chem. Thermodyn. 57, 1-8.",commercial source
1-ethyl-3-methylimidazolium acetate,AAgmaR,nIrFK,40585.7295,3675549.501,0.284848839,CCN1C=C[N+](=C1)C.CC(=O)[O-],1-ethyl-3-methylimidazolium,acetate,CCN1C=C[N+](=C1)C,CC(=O)[O-],"Araujo, J. M. M.; Pereiro, A. B.; Alves, F.; Marrucho, I. M.; Rebelo, L. P. N. (2013) J. Chem. Thermodyn. 57, 1-8.",commercial source
1-dodecyl-3-methyl-1H-imidazolium bis(trifluoromethylsulfonyl)amide,AByLzK,HSfJG,21034.97238,290.2512183,0.059896476,CCCCCCCCCCCCn1cc[n+](C)c1.O=S(=O)([N-]S(=O)(=O)C(F)(F)F)C(F)(F)F,1-dodecyl-3-methyl-1H-imidazolium,bis(trifluoromethylsulfonyl)amide,CCCCCCCCCCCCn1cc[n+](C)c1,O=S(=O)([N-]S(=O)(=O)C(F)(F)F)C(F)(F)F,"Bruce, D. W.; Cabry, C. P.; Lopes, J. N. C.; Costen, M. L.; DAndrea, L.; Grillo, I.; Marshall, B. C.; McKendrick, K. G.; Minton, T. K.; Purcell, S. M.; Rogers, S.; Slattery, J. M.; Shimizu, K.; Smoll, E.; Tesa-Serrate, M. A. (2017) J. Phys. Chem. B 121(24), 6002-6020.",synthesized by the authors
1-ethyl-3-methylimidazolium trifluoromethanesulfonate,AAyCVz,aTTgN,22840.07015,8797.890204,0.876493535,CCN1C=C[N+](=C1)C.C(F)(F)(F)S(=O)(=O)[O-],1-ethyl-3-methylimidazolium,trifluoromethanesulfonate,CCN1C=C[N+](=C1)C,C(F)(F)(F)S(=O)(=O)[O-],"Calado, M. S.; Diogo, J. C. F.; da Mata, J. L. C.; Caetano, F. J. P.; Visak, Z. P.; Fareleira, J. M. N. A. (2013) Int. J. Thermophys. 34(7), 1265-1279.",commercial source
1-hexyl-3-methylimidazolium bis[(trifluoromethyl)sulfonyl]imide,ABiCtA,XtRsy,29878.74146,36768.44135,0.214118859,CCCCCCn1cc[n+](C)c1.O=S(=O)([N-]S(=O)(=O)C(F)(F)F)C(F)(F)F,1-hexyl-3-methylimidazolium,bis[(trifluoromethyl)sulfonyl]imide,CCCCCCN1C=C[N+](=C1)C,O=S(=O)([N-]S(=O)(=O)C(F)(F)F)C(F)(F)F,"Calado, M. S.; Diogo, J. C. F.; da Mata, J. L. C.; Caetano, F. J. P.; Visak, Z. P.; Fareleira, J. M. N. A. (2013) Int. J. Thermophys. 34(7), 1265-1279.",commercial source
1-ethyl-3-methylimidazolium ethyl sulfate,AAtWDT,mpWYZ,30440.66328,80371.8338,0.373107223,CCN1C=C[N+](=C1)C.CCOS(=O)(=O)[O-],1-ethyl-3-methylimidazolium,ethyl,CCN1C=C[N+](=C1)C,C[CH2],"Calado, M. S.; Diogo, J. C. F.; da Mata, J. L. C.; Caetano, F. J. P.; Visak, Z. P.; Fareleira, J. M. N. A. (2013) Int. J. Thermophys. 34(7), 1265-1279.",commercial source
1-ethyl-3-methylimidazolium bis((trifluoromethyl)sulfonyl)imide,ABXNZH,TTKnv,21769.66353,5864.870132,0.899841749,CCN1C=C[N+](=C1)C.C(F)(F)(F)S(=O)(=O)[N-]S(=O)(=O)C(F)(F)F,1-ethyl-3-methylimidazolium,bis((trifluoromethyl)sulfonyl)imide,CCN1C=C[N+](=C1)C,CCCCN1C=C[N+](=C1C)C.C(F)(F)(F)S(=O)(=O)[N-]S(=O)(=O)C(F)(F)F,"Calado, M. S.; Diogo, J. C. F.; da Mata, J. L. C.; Caetano, F. J. P.; Visak, Z. P.; Fareleira, J. M. N. A. (2013) Int. J. Thermophys. 34(7), 1265-1279.",commercial source
1-ethyl-3-methylimidazolium bis((trifluoromethyl)sulfonyl)imide,ABXNZH,sYhYM,20820.82517,2537.436763,0.570875632,CCN1C=C[N+](=C1)C.C(F)(F)(F)S(=O)(=O)[N-]S(=O)(=O)C(F)(F)F,1-ethyl-3-methylimidazolium,bis((trifluoromethyl)sulfonyl)imide,CCN1C=C[N+](=C1)C,CCCCN1C=C[N+](=C1C)C.C(F)(F)(F)S(=O)(=O)[N-]S(=O)(=O)C(F)(F)F,"Chaabene, N.; Ngo, K.; Turmine, M.; Vivier, V. (2020) J. Mol. Liq. 319, 114198.",synthesized by the authors
1-(ethoxymethyl)pyridinium bis((trifluoromethyl)sulfonyl)amide,ABcXCY,BjDue,15278.3423,192.2181919,0.404571964,CCOC[n+]1ccccc1.O=S(=O)([N-]S(=O)(=O)C(F)(F)F)C(F)(F)F,1-(ethoxymethyl)pyridinium,bis((trifluoromethyl)sulfonyl)amide,CCOC[n+]1ccccc1,O=S(=O)([N-]S(=O)(=O)C(F)(F)F)C(F)(F)F,"Chen, Z.; Huo, Y.; Cao, J.; Xu, L.; Zhang, S. (2016) Ind. Eng. Chem. Res. 55, 11589-11596.",synthesized by the authors
1-methyl-1-(2-propoxyethyl)pyrrolidinium bis((trifluoromethyl)sulfonyl)amide,ABjAzo,YXvJm,15857.04168,147.4170266,0.245674204,CCCOCC[N+]1(C)CCCC1.O=S(=O)([N-]S(=O)(=O)C(F)(F)F)C(F)(F)F,1-methyl-1-(2-propoxyethyl)pyrrolidinium,bis((trifluoromethyl)sulfonyl)amide,CCCOCC[N+]1(C)CCCC1,O=S(=O)([N-]S(=O)(=O)C(F)(F)F)C(F)(F)F,"Chen, Z.; Huo, Y.; Cao, J.; Xu, L.; Zhang, S. (2016) Ind. Eng. Chem. Res. 55, 11589-11596.",synthesized by the authors
1-(3-methoxypropyl)-1-methylpyrrolidinium bis((trifluoromethyl)sulfonyl)amide,ABgQks,KdNQw,15593.26738,144.3323592,0.267540448,COCCC[N+]1(C)CCCC1.O=S(=O)([N-]S(=O)(=O)C(F)(F)F)C(F)(F)F,1-(3-methoxypropyl)-1-methylpyrrolidinium,bis((trifluoromethyl)sulfonyl)amide,COCCC[N+]1(C)CCCC1,O=S(=O)([N-]S(=O)(=O)C(F)(F)F)C(F)(F)F,"Chen, Z.; Huo, Y.; Cao, J.; Xu, L.; Zhang, S. (2016) Ind. Eng. Chem. Res. 55, 11589-11596.",synthesized by the authors
1-(2-methoxyethyl)-1-methylpyrrolidinium bis((trifluoromethyl)sulfonyl)amide,ABdfoj,nRamn,14428.66399,127.2724522,0.377399388,COCC[N+]1(C)CCCC1.O=S(=O)([N-]S(=O)(=O)C(F)(F)F)C(F)(F)F,1-(2-methoxyethyl)-1-methylpyrrolidinium,bis((trifluoromethyl)sulfonyl)amide,COCC[N+]1(C)CCCC1,O=S(=O)([N-]S(=O)(=O)C(F)(F)F)C(F)(F)F,"Chen, Z.; Huo, Y.; Cao, J.; Xu, L.; Zhang, S. (2016) Ind. Eng. Chem. Res. 55, 11589-11596.",synthesized by the authors
1-(2-propoxyethyl)pyridinium bis((trifluoromethyl)sulfonyl)amide,ABhryh,nlVmd,17108.00869,253.7326061,0.255279568,CCCOCC[n+]1ccccc1.O=S(=O)([N-]S(=O)(=O)C(F)(F)F)C(F)(F)F,1-(2-propoxyethyl)pyridinium,bis((trifluoromethyl)sulfonyl)amide,CCCOCC[n+]1ccccc1,O=S(=O)([N-]S(=O)(=O)C(F)(F)F)C(F)(F)F,"Chen, Z.; Huo, Y.; Cao, J.; Xu, L.; Zhang, S. (2016) Ind. Eng. Chem. Res. 55, 11589-11596.",synthesized by the authors
1-(3-methoxypropyl)pyridinium bis((trifluoromethyl)sulfonyl)amide,ABfHSy,AgKNN,16110.09472,204.9670383,0.308432755,COCCC[n+]1ccccc1.O=S(=O)([N-]S(=O)(=O)C(F)(F)F)C(F)(F)F,1-(3-methoxypropyl)pyridinium,bis((trifluoromethyl)sulfonyl)amide,COCCC[n+]1ccccc1,O=S(=O)([N-]S(=O)(=O)C(F)(F)F)C(F)(F)F,"Chen, Z.; Huo, Y.; Cao, J.; Xu, L.; Zhang, S. (2016) Ind. Eng. Chem. Res. 55, 11589-11596.",synthesized by the authors
1-(2-ethoxyethyl)pyridinium bis((trifluoromethyl)sulfonyl)amide,ABfHSj,YhvFd,15598.89345,174.5341889,0.322790356,CCOCC[n+]1ccccc1.O=S(=O)([N-]S(=O)(=O)C(F)(F)F)C(F)(F)F,1-(2-ethoxyethyl)pyridinium,bis((trifluoromethyl)sulfonyl)amide,CCOCC[n+]1ccccc1,O=S(=O)([N-]S(=O)(=O)C(F)(F)F)C(F)(F)F,"Chen, Z.; Huo, Y.; Cao, J.; Xu, L.; Zhang, S. (2016) Ind. Eng. Chem. Res. 55, 11589-11596.",synthesized by the authors
1-(2-methoxyethyl)pyridinium bis(trifluoromethylsulfonyl)amide,ABcXEF,YkemE,16204.03147,251.0375827,0.363711716,COCC[n+]1ccccc1.O=S(=O)([N-]S(=O)(=O)C(F)(F)F)C(F)(F)F,1-(2-methoxyethyl)pyridinium,bis(trifluoromethylsulfonyl)amide,COCC[N+]1=CC=CC=C1,O=S(=O)([N-]S(=O)(=O)C(F)(F)F)C(F)(F)F,"Chen, Z.; Huo, Y.; Cao, J.; Xu, L.; Zhang, S. (2016) Ind. Eng. Chem. Res. 55, 11589-11596.",synthesized by the authors
1-(methoxymethyl)pyridinium bis((trifluoromethyl)sulfonyl)amide,ABZmaR,pfoxs,15866.59015,269.4838682,0.44737506,COC[n+]1ccccc1.O=S(=O)([N-]S(=O)(=O)C(F)(F)F)C(F)(F)F,1-(methoxymethyl)pyridinium,bis((trifluoromethyl)sulfonyl)amide,COC[n+]1ccccc1,O=S(=O)([N-]S(=O)(=O)C(F)(F)F)C(F)(F)F,"Chen, Z.; Huo, Y.; Cao, J.; Xu, L.; Zhang, S. (2016) Ind. Eng. Chem. Res. 55, 11589-11596.",synthesized by the authors
1-methyl-3-(2-propoxyethyl)imidazolium bis((trifluoromethyl)sulfonyl)amide,ABiVNH,VDChu,15458.41264,159.4226963,0.312034585,CCCOCC[n+]1ccn(C)c1.O=S(=O)([N-]S(=O)(=O)C(F)(F)F)C(F)(F)F,1-methyl-3-(2-propoxyethyl)imidazolium,bis((trifluoromethyl)sulfonyl)amide,CCCOCC[n+]1ccn(C)c1,O=S(=O)([N-]S(=O)(=O)C(F)(F)F)C(F)(F)F,"Chen, Z.; Huo, Y.; Cao, J.; Xu, L.; Zhang, S. (2016) Ind. Eng. Chem. Res. 55, 11589-11596.",synthesized by the authors
3-(3-methoxypropyl)-1-methylimidazolium bis((trifluoromethyl)sulfonyl)amide,ABflPG,dEOuA,15428.06925,175.1376866,0.347015137,COCCC[n+]1ccn(C)c1.O=S(=O)([N-]S(=O)(=O)C(F)(F)F)C(F)(F)F,3-(3-methoxypropyl)-1-methylimidazolium,bis((trifluoromethyl)sulfonyl)amide,COCCC[n+]1ccn(C)c1,O=S(=O)([N-]S(=O)(=O)C(F)(F)F)C(F)(F)F,"Chen, Z.; Huo, Y.; Cao, J.; Xu, L.; Zhang, S. (2016) Ind. Eng. Chem. Res. 55, 11589-11596.",synthesized by the authors
1-(2-ethoxyethyl)-3-methylimidazolium bis((trifluoromethyl)sulfonyl)amide,ABflRC,ZkToi,14090.44113,116.5040588,0.39597267,CCOCC[n+]1ccn(C)c1.O=S(=O)([N-]S(=O)(=O)C(F)(F)F)C(F)(F)F,1-(2-ethoxyethyl)-3-methylimidazolium,bis((trifluoromethyl)sulfonyl)amide,CCOCC[n+]1ccn(C)c1,O=S(=O)([N-]S(=O)(=O)C(F)(F)F)C(F)(F)F,"Chen, Z.; Huo, Y.; Cao, J.; Xu, L.; Zhang, S. (2016) Ind. Eng. Chem. Res. 55, 11589-11596.",synthesized by the authors
1-(2-methoxyethyl)-3-methyl-1H-imidazolium bis((trifluoromethyl)sulfonyl)amide,ABdBEz,WWlnT,14267.22973,144.7529671,0.458118559,COCCn1cc[n+](C)c1.O=S(=O)([N-]S(=O)(=O)C(F)(F)F)C(F)F,1-(2-methoxyethyl)-3-methyl-1H-imidazolium,bis((trifluoromethyl)sulfonyl)amide,COCCn1cc[n+](C)c1,O=S(=O)([N-]S(=O)(=O)C(F)(F)F)C(F)F,"Chen, Z.; Huo, Y.; Cao, J.; Xu, L.; Zhang, S. (2016) Ind. Eng. Chem. Res. 55, 11589-11596.",synthesized by the authors
1-(methoxymethyl)-3-methylimidazolium bis((trifluoromethyl)sulfonyl)amide,ABaRkL,kBGTB,16332.25166,317.4764115,0.436782825,COC[n+]1ccn(C)c1.O=S(=O)([N-]S(=O)(=O)C(F)(F)F)C(F)(F)F,1-(methoxymethyl)-3-methylimidazolium,bis((trifluoromethyl)sulfonyl)amide,COC[n+]1ccn(C)c1,O=S(=O)([N-]S(=O)(=O)C(F)(F)F)C(F)(F)F,"Chen, Z.; Huo, Y.; Cao, J.; Xu, L.; Zhang, S. (2016) Ind. Eng. Chem. Res. 55, 11589-11596.",synthesized by the authors
propylammonium acetate,AAWvmB,fAKce,42092.88649,1378092.512,0.058145134,CC(=O)[O-].CCC[NH3+],propylammonium,acetate,CC(=O)[O-],CC(=O)[O-],"Chhotaray, P. K.; Gardas, R. L. (2015) J. Chem. Eng. Data 60(6), 1868-1877.",synthesized by the authors
propylammonium formate,AAULkX,UbKdX,23771.38576,5387.142412,0.368604064,CCC[NH3+].O=C[O-],propylammonium,formate,CCC[NH3+],C(=O)[O-],"Chhotaray, P. K.; Gardas, R. L. (2015) J. Chem. Eng. Data 60(6), 1868-1877.",synthesized by the authors
N-butylimidazolium trifluoroacetate,AAtqIW,IAmSj,26072.1004,4931.27933,0.133373969,CCCC[n+]1cc[nH]c1.O=C([O-])C(F)(F)F,N-butylimidazolium,trifluoroacetate,CCCC[n+]1cc[nH]c1,C(=O)(C(F)(F)F)[O-],"Fadeeva, Yu.A.; Gruzdev, M.S.; Kudryakova, N.O.; Shmukler, L.E.; Safonova, L.P. (2020) J. Mol. Liq. 297, 111305.",synthesized by the authors
N-butylimidazolium salicylate,AAyXSN,iJPva,32320.39048,11519.95599,0.025052341,CCCC[n+]1cc[nH]c1.O=C([O-])c1ccccc1O,N-butylimidazolium,salicylate,CCCC[n+]1cc[nH]c1,C1=CC=C(C(=C1)C(=O)O)[O-],"Fadeeva, Yu.A.; Gruzdev, M.S.; Kudryakova, N.O.; Shmukler, L.E.; Safonova, L.P. (2020) J. Mol. Liq. 297, 111305.",synthesized by the authors