Name,Structure Graph ID,ID,Ea (J/mol),A,RT_conductivity (S/m),SMILES,Cation Name,Anion Name,Cation SMILES,Anion SMILES,reference,source
trioctylammonium 5-carboxypentanoate,ABsGoB,JeBgA,42899.20784,15167.11241,0.000462241,CCCCCCCC[NH+](CCCCCCCC)CCCCCCCC.C(CCC(=O)[O-])CC(=O)O,trioctylammonium,5-carboxypentanoate,CCCCCCCC[NH+](CCCCCCCC)CCCCCCCC,C(CCC(=O)[O-])CC(=O)O,"Ramjhan, Z.; Lokhat, D.; Alshammari, M. B.; Joy, M. N.; Ahmad, A. (2021) J. Mol. Liq. 342, 117534.",synthesized by the authors
trioctylammonium 9-carboxynonanoate,ACCvtj,DJMgz,60803.13391,7752639.058,0.000172428,CCCCCCCC[NH+](CCCCCCCC)CCCCCCCC.O=C([O-])CCCCCCCCC(=O)O,trioctylammonium,9-carboxynonanoate,CCCCCCCC[NH+](CCCCCCCC)CCCCCCCC,O=C([O-])CCCCCCCCC(=O)O,"Ramjhan, Z.; Lokhat, D.; Alshammari, M. B.; Joy, M. N.; Ahmad, A. (2021) J. Mol. Liq. 342, 117534.",synthesized by the authors
trioctylammonium phthalate,ABvyrm,IilDi,57596.53294,31015113.78,0.002514988,CCCCCCCC[NH+](CCCCCCCC)CCCCCCCC.C1=CC=C(C(=C1)C(=O)[O-])C(=O)[O-],trioctylammonium,phthalate,CCCCCCCC[NH+](CCCCCCCC)CCCCCCCC,C1=CC=C(C(=C1)C(=O)[O-])C(=O)[O-],"Ramjhan, Z.; Lokhat, D.; Alshammari, M. B.; Joy, M. N.; Ahmad, A. (2021) J. Mol. Liq. 342, 117534.",synthesized by the authors
1-(3-((3-butoxy-2-hydroxypropyl)amino)propyl)-1H-imidazol-3-ium ethanesulfonate,ABSOBi,FhBWp,51033.59796,10248911.91,0.011734936,CCCCOCC(O)CNCCCn1cc[nH+]c1.CCS(=O)(=O)[O-],1-(3-((3-butoxy-2-hydroxypropyl)amino)propyl)-1H-imidazol-3-ium,ethanesulfonate,CCCCOCC(O)CNCCCn1cc[nH+]c1,CCS(=O)(=O)[O-],"Shevchenko, V. V.; Gumenna, M. A.; Korolovych, V. F.; Stryutsky, A. V.; Trachevsky, V. V.; Hrebnov, O.; Klepko, V. V.; Klymenko, N. S.; Shumsky, V. F.; Davydenko, V. V.; Ledin, P. A. (2017) J. Mol. Liq. 235, 68-76.",synthesized by the authors
1-butyl-3-methylimidazolium bis(trifluoromethylsulfonyl)imide,ABchwx,UTNIn,24165.89737,7317.779693,0.427033263,CCCCN1C=C[N+](=C1)C.C(F)(F)(F)S(=O)(=O)[N-]S(=O)(=O)C(F)(F)F,1-butyl-3-methylimidazolium,bis(trifluoromethylsulfonyl)imide,CCCCN1C=C[N+](=C1)C,C(F)(F)(F)S(=O)(=O)NS(=O)(=O)C(F)(F)F,"Srour, H.; Traikia, M.; Fenet, B.; Rouault, H.; Gomes, M. F. C.; Santini, C. C.; Husson, P. (2015) J. Solution Chem. 44, 495-510.",synthesized by the authors
1-hexadecyl-1-methylpyrrolidinium bis(trifluoromethylsulfonyl)amide,ACJfeO,cQqpq,238844.6557,7.79e+34,1.11e-07,CCCCCCCCCCCCCCCC[N+]1(C)CCCC1.O=S(=O)([N-]S(=O)(=O)C(F)(F)F)C(F)(F)F,1-hexadecyl-1-methylpyrrolidinium,bis(trifluoromethylsulfonyl)amide,CCCCCCCCCCCCCCCC[N+]1(C)CCCC1,O=S(=O)([N-]S(=O)(=O)C(F)(F)F)C(F)(F)F,"Tu, W.; Jurkiewicz, K.; Adrjanowicz, K. (2021) J. Mol. Liq. 324, 115115.",commercial source
1-hexadecyl-1-methylpyrrolidinium bis(trifluoromethylsulfonyl)amide,ACJfeO,JvizB,161958.0735,6.63e+21,2.79e-07,CCCCCCCCCCCCCCCC[N+]1(C)CCCC1.O=S(=O)([N-]S(=O)(=O)C(F)(F)F)C(F)(F)F,1-hexadecyl-1-methylpyrrolidinium,bis(trifluoromethylsulfonyl)amide,CCCCCCCCCCCCCCCC[N+]1(C)CCCC1,O=S(=O)([N-]S(=O)(=O)C(F)(F)F)C(F)(F)F,"Tu, W.; Jurkiewicz, K.; Adrjanowicz, K. (2021) J. Mol. Liq. 324, 115115.",commercial source
bis(dimethylamino)dipropylaminocyclopropenium bis(trifluoromethanesulfonyl)amide,ABtBdY,USVee,25442.93328,6765.147163,0.235841464,CCCN(CCC)[c+]1c(N(C)C)c1N(C)C.O=S(=O)([N-]S(=O)(=O)C(F)(F)F)C(F)(F)F,bis(dimethylamino)dipropylaminocyclopropenium,bis(trifluoromethanesulfonyl)amide,CCCN(CCC)[c+]1c(N(C)C)c1N(C)C,O=S(=O)([N-]S(=O)(=O)C(F)(F)F)C(F)(F)F,"Walst, K. J.; Yunis, R.; Bayley, P. M.; MacFarlane, D. R.; Ward, C. J.; Wang, R.; Curnow, O. J. (2015) RSC Adv. 5(49), 39565-39579.",synthesized by the authors
bis(dimethylamino)diethylaminocyclopropenium bis(trifluoromethanesulfonyl)amide,ABngVY,GsnOf,26640.53694,10636.9097,0.228736582,CCN(CC)[c+]1c(N(C)C)c1N(C)C.O=S(=O)([N-]S(=O)(=O)C(F)(F)F)C(F)(F)F,bis(dimethylamino)diethylaminocyclopropenium,bis(trifluoromethanesulfonyl)amide,CCN(CC)[c+]1c(N(C)C)c1N(C)C,O=S(=O)([N-]S(=O)(=O)C(F)(F)F)C(F)(F)F,"Walst, K. J.; Yunis, R.; Bayley, P. M.; MacFarlane, D. R.; Ward, C. J.; Wang, R.; Curnow, O. J. (2015) RSC Adv. 5(49), 39565-39579.",synthesized by the authors
"N,N-dimethylacetamidium bis(trifluoromethanesulfonyl)amide",ABSqAF,TqSvf,26845.10155,12382.44877,0.245180842,CC(=O)[NH+](C)C.O=S(=O)([N-]S(=O)(=O)C(F)(F)F)C(F)(F)F,"N,N-dimethylacetamidium",bis(trifluoromethanesulfonyl)amide,CC(=O)[NH+](C)C,O=S(=O)([N-]S(=O)(=O)C(F)(F)F)C(F)(F)F,"Watanabe, M.; Kodama, D.; Makino, T.; Kanakubo, M. (2016) J. Chem. Eng. Data 61(12), 4215-4221.",synthesized by the authors
1-hexyl-3-methylimidazolium bis[(trifluoromethyl)sulfonyl]imide,ABiCtA,HIVej,30891.67091,55175.19825,0.213528656,CCCCCCn1cc[n+](C)c1.O=S(=O)([N-]S(=O)(=O)C(F)(F)F)C(F)(F)F,1-hexyl-3-methylimidazolium,bis[(trifluoromethyl)sulfonyl]imide,CCCCCCN1C=C[N+](=C1)C,O=S(=O)([N-]S(=O)(=O)C(F)(F)F)C(F)(F)F,"Widegren, J. A.; Magee, J. W. (2007) J. Chem. Eng. Data 52(6), 2331-2338.",synthesized by others
1-hexyl-3-methylimidazolium bis[(trifluoromethyl)sulfonyl]imide,ABiCtA,BpJlN,30795.77614,53034.10021,0.213338109,CCCCCCn1cc[n+](C)c1.O=S(=O)([N-]S(=O)(=O)C(F)(F)F)C(F)(F)F,1-hexyl-3-methylimidazolium,bis[(trifluoromethyl)sulfonyl]imide,CCCCCCN1C=C[N+](=C1)C,O=S(=O)([N-]S(=O)(=O)C(F)(F)F)C(F)(F)F,"Widegren, J. A.; Saurer, E. M.; Marsh, K. N.; Magee, J. W. (2005) J. Chem. Thermodyn. 37(6), 569-575.",synthesized by others
1-butyl-3-methylimidazolium hexafluorophosphate,ABChJv,jGExf,39621.62147,1245424.206,0.142404363,CCCCN1C=C[N+](=C1)C.F[P-](F)(F)(F)(F)F,1-butyl-3-methylimidazolium,hexafluorophosphate,CCCCN1C=C[N+](=C1)C,F[P-](F)(F)(F)(F)F,"Widegren, J. A.; Saurer, E. M.; Marsh, K. N.; Magee, J. W. (2005) J. Chem. Thermodyn. 37(6), 569-575.",commercial source
1-butyl-3-methylimidazolium bis(trifluoromethylsulfonyl)imide,ABchwx,DMvle,27533.38144,26593.98163,0.398910279,CCCCN1C=C[N+](=C1)C.C(F)(F)(F)S(=O)(=O)[N-]S(=O)(=O)C(F)(F)F,1-butyl-3-methylimidazolium,bis(trifluoromethylsulfonyl)imide,CCCCN1C=C[N+](=C1)C,C(F)(F)(F)S(=O)(=O)NS(=O)(=O)C(F)(F)F,"Widegren, J. A.; Saurer, E. M.; Marsh, K. N.; Magee, J. W. (2005) J. Chem. Thermodyn. 37(6), 569-575.",commercial source
1-ethyl-3-methylimidazolium bis((trifluoromethyl)sulfonyl)imide,ABXNZH,jsogO,22511.15417,7907.765054,0.899602655,CCN1C=C[N+](=C1)C.C(F)(F)(F)S(=O)(=O)[N-]S(=O)(=O)C(F)(F)F,1-ethyl-3-methylimidazolium,bis((trifluoromethyl)sulfonyl)imide,CCN1C=C[N+](=C1)C,CCCCN1C=C[N+](=C1C)C.C(F)(F)(F)S(=O)(=O)[N-]S(=O)(=O)C(F)(F)F,"Widegren, J. A.; Saurer, E. M.; Marsh, K. N.; Magee, J. W. (2005) J. Chem. Thermodyn. 37(6), 569-575.",commercial source
1-butylpyridinium bis[(trifluoromethyl)sulfonyl]imide,ABcDLM,PGofT,31530.83886,100639.4684,0.30095183,CCCC[n+]1ccccc1.O=S(=O)([N-]S(=O)(=O)C(F)(F)F)C(F)(F)F,1-butylpyridinium,bis[(trifluoromethyl)sulfonyl]imide,CCCC[N+]1=CC=CC=C1,O=S(=O)([N-]S(=O)(=O)C(F)(F)F)C(F)(F)F,"Zhang, Q.-G.; Sun, S.-S.; Pitula, S.; Liu, Q.-S.; Welz-Biermann, U.; Zhang, J.-J. (2011) J. Chem. Eng. Data 56(12), 4659-4664.",synthesized by the authors
1-(2-ethoxy-2-oxoethyl)-3-methylimidazolium chloride,AAnSCL,hXeQO,15415.91684,259.2224686,0.51614364,CCOC(=O)Cn1cc[n+](C)c1.[Cl-],1-(2-ethoxy-2-oxoethyl)-3-methylimidazolium,chloride,CCOC(=O)Cn1cc[n+](C)c1,[Cl-],"Zhuang, L.; Zhong, F.; Qin, M.; Sun, Y.; Tan, X.; Zhang, H.; Kong, M.; Hu, K.; Wang, G. (2020) J. Mol. Liq. 317, 113918.",synthesized by the authors
1-allyl-3-methylimidazolium chloride,AAeaVk,BCVyL,15691.99787,231.0270627,0.41151986,C[N+]1=CN(C=C1)CC=C.[Cl-],1-allyl-3-methylimidazolium,chloride,C[N+]1=CN(C=C1)CC=C,[Cl-],"Zhuang, L.; Zhong, F.; Qin, M.; Sun, Y.; Tan, X.; Zhang, H.; Kong, M.; Hu, K.; Wang, G. (2020) J. Mol. Liq. 317, 113918.",synthesized by others
trihexyl(tetradecyl)phosphonium bis[(trifluoromethyl)sulfonyl]imide,ACqwtJ,kvjIx,36339.23521,22863.32008,0.009827125,CCCCCCCCCCCCCC[P+](CCCCCC)(CCCCCC)CCCCCC.O=S(=O)([N-]S(=O)(=O)C(F)(F)F)C(F)(F)F,trihexyl(tetradecyl)phosphonium,bis[(trifluoromethyl)sulfonyl]imide,CCCCCCCCCCCCCC[P+](CCCCCC)(CCCCCC)CCCCCC,O=S(=O)([N-]S(=O)(=O)C(F)(F)F)C(F)(F)F,"Annat, Gary; Forsyth, Maria; MacFarlane, Douglas R. (2012) J. Phys. Chem. B 116(28), 8251-8258.",commercial source
1-methyl-1-propylpyrrolidinium bis[(trifluoromethyl)sulfonyl]imide,ABabds,XOgAa,24525.28365,7889.278325,0.398248727,CCC[N+]1(C)CCCC1.O=S(=O)([N-]S(=O)(=O)C(F)(F)F)C(F)(F)F,1-methyl-1-propylpyrrolidinium,bis[(trifluoromethyl)sulfonyl]imide,CCC[N+]1(CCCC1)C,O=S(=O)([N-]S(=O)(=O)C(F)(F)F)C(F)(F)F,"Annat, Gary; Forsyth, Maria; MacFarlane, Douglas R. (2012) J. Phys. Chem. B 116(28), 8251-8258.",synthesized by the authors
1-ethyl-3-methylimidazolium bis((trifluoromethyl)sulfonyl)imide,ABXNZH,MzxJJ,20046.03377,2879.423931,0.885517239,CCN1C=C[N+](=C1)C.C(F)(F)(F)S(=O)(=O)[N-]S(=O)(=O)C(F)(F)F,1-ethyl-3-methylimidazolium,bis((trifluoromethyl)sulfonyl)imide,CCN1C=C[N+](=C1)C,CCCCN1C=C[N+](=C1C)C.C(F)(F)(F)S(=O)(=O)[N-]S(=O)(=O)C(F)(F)F,"Annat, Gary; Forsyth, Maria; MacFarlane, Douglas R. (2012) J. Phys. Chem. B 116(28), 8251-8258.",synthesized by the authors
1-butyl-1-methylpyrrolidinium bis[(trifluoromethyl)sulfonyl]imide,ABdMNo,rqeYj,24659.81004,5782.833295,0.276495761,CCCC[N+]1(C)CCCC1.O=S(=O)([N-]S(=O)(=O)C(F)(F)F)C(F)(F)F,1-butyl-1-methylpyrrolidinium,bis[(trifluoromethyl)sulfonyl]imide,CCCC[N+]1(CCCC1)C,O=S(=O)([N-]S(=O)(=O)C(F)(F)F)C(F)(F)F,"Annat, Gary; Forsyth, Maria; MacFarlane, Douglas R. (2012) J. Phys. Chem. B 116(28), 8251-8258.",synthesized by the authors
1-butyl-4-methylpyridinium tetrafluoroborate,AAtevY,etYXJ,43399.35589,7373224.532,0.183652224,[B-](F)(F)(F)F.CCCC[N+]1=CC=C(C=C1)C,1-butyl-4-methylpyridinium,tetrafluoroborate,CCCC[N+]1=CC=C(C=C1)C,[B-](F)(F)(F)F,"Garcia-Mardones, M.; Osorio, H. M.; Lafuente, C.; Gascon, I. (2013) J. Chem. Eng. Data 58(6), 1613-1620.",commercial source
1-butyl-3-methylpyridinium tetrafluoroborate,AAtejH,rzRaf,39734.63405,1914573.825,0.209159725,[B-](F)(F)(F)F.CCCC[N+]1=CC=CC(=C1)C,1-butyl-3-methylpyridinium,tetrafluoroborate,CCCC[N+]1=CC=CC(=C1)C,[B-](F)(F)(F)F,"Garcia-Mardones, M.; Osorio, H. M.; Lafuente, C.; Gascon, I. (2013) J. Chem. Eng. Data 58(6), 1613-1620.",commercial source
1-butylpyridinium tetrafluoroborate,AAquMR,rmign,38547.85278,1369288.181,0.241450138,[B-](F)(F)(F)F.CCCC[N+]1=CC=CC=C1,1-butylpyridinium,tetrafluoroborate,CCCC[N+]1=CC=CC=C1,[B-](F)(F)(F)F,"Garcia-Mardones, M.; Osorio, H. M.; Lafuente, C.; Gascon, I. (2013) J. Chem. Eng. Data 58(6), 1613-1620.",commercial source
1-propylpyridinium tetrafluoroborate,AAoJgc,FHwUS,35182.31492,577038.8935,0.395537091,[B-](F)(F)(F)F.CCC[N+]1=CC=CC=C1,1-propylpyridinium,tetrafluoroborate,[B-](F)(F)(F)F,[B-](F)(F)(F)F,"Garcia-Mardones, M.; Martin, S.; Gascon, I.; Lafuente, C. (2014) J. Chem. Eng. Data 59(5), 1564-1573.",commercial source
1-butyl-3-methylimidazolium bis(trifluoromethylsulfonyl)imide,ABchwx,Jubll,27250.34924,23035.39951,0.387324943,CCCCN1C=C[N+](=C1)C.C(F)(F)(F)S(=O)(=O)[N-]S(=O)(=O)C(F)(F)F,1-butyl-3-methylimidazolium,bis(trifluoromethylsulfonyl)imide,CCCCN1C=C[N+](=C1)C,C(F)(F)(F)S(=O)(=O)NS(=O)(=O)C(F)(F)F,"Kanakubo, M.; Makino, T.; Umecky, T. (2016) J. Mol. Liq. 217, 112-119.",synthesized by the authors
1-butyl-3-methylimidazolium iodide,AAzJkz,qrOpR,57261.83258,341573561.1,0.031702025,CCCCN1C=C[N+](=C1)C.[I-],1-butyl-3-methylimidazolium,iodide,CCCCN1C=C[N+](=C1)C,[I-],"Kim, K.-S.; Shin, B.-K.; Lee, H. (2004) Korean J. Chem. Eng. 21(5), 1010-1014.",synthesized by the authors
1-butyl-3-methylimidazolium tetrafluoroborate,AArYBF,mBYwR,37909.05744,1843932.412,0.420722681,[B-](F)(F)(F)F.CCCCN1C=C[N+](=C1)C,1-butyl-3-methylimidazolium,tetrafluoroborate,CCCCN1C=C[N+](=C1)C,[B-](F)(F)(F)F,"Kim, K.-S.; Shin, B.-K.; Lee, H. (2004) Korean J. Chem. Eng. 21(5), 1010-1014.",synthesized by the authors
3-(2-cyanoethyl)-1-(2-ethoxyethyl)imidazolium bis(trifluoromethanesulfonyl)amide,ABnLOR,Ilgvd,23537.93808,847.4421096,0.063710681,CCOCCn1cc[n+](CCC#N)c1.O=S(=O)([N-]S(=O)(=O)C(F)(F)F)C(F)F,3-(2-cyanoethyl)-1-(2-ethoxyethyl)imidazolium,bis(trifluoromethanesulfonyl)amide,CCOCCn1cc[n+](CCC#N)c1,O=S(=O)([N-]S(=O)(=O)C(F)(F)F)C(F)F,"Raj, J. J.; Lethesh, K. C.; Padmanabhan, E. (2021) J. Mol. Liq. 327, 114841.",synthesized by the authors
1-(2-cyanoethyl)-3[2-(2-methoxyethoxy)ethyl]imidazolium bis((trifluoromethyl)sulfonyl)imide,ABtAhY,PQnvc,23183.03283,853.8474014,0.07407346,COCCOCC[n+]1ccn(CCC#N)c1.O=S(=O)([N-]S(=O)(=O)C(F)(F)F)C(F)(F)F,1-(2-cyanoethyl)-3[2-(2-methoxyethoxy)ethyl]imidazolium,bis((trifluoromethyl)sulfonyl)imide,COCCOCC[n+]1ccn(CCC#N)c1,CCCCN1C=C[N+](=C1C)C.C(F)(F)(F)S(=O)(=O)[N-]S(=O)(=O)C(F)(F)F,"Raj, J. J.; Lethesh, K. C.; Padmanabhan, E. (2021) J. Mol. Liq. 327, 114841.",synthesized by the authors
1-hexadecyl-1-methylpyrrolidinium bis(trifluoromethylsulfonyl)amide,ACJfeO,sqHJb,275708.0645,1.46e+42,7.23e-07,CCCCCCCCCCCCCCCC[N+]1(C)CCCC1.O=S(=O)([N-]S(=O)(=O)C(F)(F)F)C(F)(F)F,1-hexadecyl-1-methylpyrrolidinium,bis(trifluoromethylsulfonyl)amide,CCCCCCCCCCCCCCCC[N+]1(C)CCCC1,O=S(=O)([N-]S(=O)(=O)C(F)(F)F)C(F)(F)F,"Tu, W.; Jurkiewicz, K.; Adrjanowicz, K. (2021) J. Mol. Liq. 324, 115115.",commercial source
1-ethyl-3-methylimidazolium bis((trifluoromethyl)sulfonyl)imide,ABXNZH,UxELq,22298.67104,6899.889248,0.855197844,CCN1C=C[N+](=C1)C.C(F)(F)(F)S(=O)(=O)[N-]S(=O)(=O)C(F)(F)F,1-ethyl-3-methylimidazolium,bis((trifluoromethyl)sulfonyl)imide,CCN1C=C[N+](=C1)C,CCCCN1C=C[N+](=C1C)C.C(F)(F)(F)S(=O)(=O)[N-]S(=O)(=O)C(F)(F)F,"Asenbauer, J.; Hassen, N. B.; McCloskey, B. D.; Prausnitz, J. M. (2017) Electrochim. Acta 247, 1038-1043.",commercial source
1-ethyl-3-methylimidazolium trifluoromethanesulfonate,AAyCVz,rAkbx,23042.37774,9207.471278,0.845406968,CCN1C=C[N+](=C1)C.C(F)(F)(F)S(=O)(=O)[O-],1-ethyl-3-methylimidazolium,trifluoromethanesulfonate,CCN1C=C[N+](=C1)C,C(F)(F)(F)S(=O)(=O)[O-],"Asenbauer, J.; Hassen, N. B.; McCloskey, B. D.; Prausnitz, J. M. (2017) Electrochim. Acta 247, 1038-1043.",commercial source
1-propylpyridinium bis((trifluoromethyl)sulfonyl)amide,ABZTgF,sZpsD,22681.20247,3199.665345,0.339866765,CCC[n+]1ccccc1.O=S(=O)([N-]S(=O)(=O)C(F)(F)F)C(F)(F)F,1-propylpyridinium,bis((trifluoromethyl)sulfonyl)amide,CCC[n+]1ccccc1,O=S(=O)([N-]S(=O)(=O)C(F)(F)F)C(F)(F)F,"Dzida, M.; Musial, M.; Zorebski, E.; Zorebski, M.; Jacquemin, J.; Goodrich, P.; Wojnarowska, Z.; Paluch, M. (2019) J. Mol. Liq. 278, 401-412.",synthesized by the authors
trimethyloctylammonium bis[(trifluoromethyl)sulfonyl]imide,ABjAtT,ETOYE,15361.80978,24.01225944,0.048866433,CCCCCCCC[N+](C)(C)C.C(F)(F)(F)S(=O)(=O)[N-]S(=O)(=O)C(F)(F)F,trimethyloctylammonium,bis[(trifluoromethyl)sulfonyl]imide,CCCCCCCC[N+](C)(C)C,C(F)(F)(F)S(=O)(=O)[N-]S(=O)(=O)C(F)(F)F,"Kawai, R.; Yada, S.; Yoshimura, T. (2019) J. Mol. Liq. 294, 111586.",synthesized by the authors
N-butyltropinium L-tryptophanate,ABZLDD,mZTyT,108530.7401,3023280000000.0,2.92e-07,N[C@@H](Cc1c[nH]c2ccccc12)C(=O)[O-].[H][C@]12CC[C@]([H])(C[C@H](O)C1)[N+]2(C)CCCC,N-butyltropinium,L-tryptophanate,N[C@@H](Cc1c[nH]c2ccccc12)C(=O)[O-],C1=CC=C2C(=C1)C(=CN2)CC(C(=O)[O-])N,"Peng, L.; Wang, Z.; Zhu, H.; Zeng, T.; Zhou, W.; Yao, S.; Song, H. (2021) J. Mol. Liq. 342, 116938.",synthesized by the authors
triethylammonium hydrogen sulfate,AAmQWi,tiXou,34756.8265,42922.31709,0.034931061,CC[NH+](CC)CC.OS(=O)(=O)[O-],triethylammonium,hydrogen,CC[NH+](CC)CC,[HH],"Shmukler, L.E.; Gruzdev, M.S.; Kudryakova, N.O.; Fadeeva, Y. A.; Kolker, A.M.; Safonova, L.P. (2018) J. Mol. Liq. 266, 139-146.",synthesized by the authors
1-methyl-3-propylimidazolium iodide,AAwYRR,ISOOa,31852.69585,55816.92996,0.146590072,CCCN1C=C[N+](=C1)C.[I-],1-methyl-3-propylimidazolium,iodide,CCCN1C=C[N+](=C1)C,[I-],"Izgorodina, E. I.; Maganti, R.; Armel, V.; Dean, P. M.; Pringle, J. M.; Seddon, K. R.; MacFarlane, D. R. (2011) J. Phys. Chem. B 115, 14688-14697.",synthesized by the authors
"N,N,N-triethyltetradecan-1-aminium bis((trifluoromethyl)sulfonyl)amide",ACHPOU,XxDoc,113744.4653,8.48e+17,0.01,CCCCCCCCCCCCCC[N+](CC)(CC)CC.O=S(=O)([N-]S(=O)(=O)C(F)(F)F)C(F)(F)F,"N,N,N-triethyltetradecan-1-aminium",bis((trifluoromethyl)sulfonyl)amide,CCCCCCCCCCCCCC[N+](CC)(CC)CC,O=S(=O)([N-]S(=O)(=O)C(F)(F)F)C(F)(F)F,"Machanova, K.; Boisset, A.; Sedlakova, Z.; Anouti, M.; Bendova, M.; Jacquemin, J. (2012) J. Chem. Eng. Data 57(8), 2227-2235.",commercial source
"N,N,N-triethyldodecan-1-aminium bis((trifluoromethyl)sulfonyl)amide",ACBueh,lKAzI,66325.46813,10465744469.0,0.025084432,CCCCCCCCCCCC[N+](CC)(CC)CC.O=S(=O)([N-]S(=O)(=O)C(F)(F)F)C(F)(F)F,"N,N,N-triethyldodecan-1-aminium",bis((trifluoromethyl)sulfonyl)amide,CCCCCCCCCCCC[N+](CC)(CC)CC,O=S(=O)([N-]S(=O)(=O)C(F)(F)F)C(F)(F)F,"Machanova, K.; Boisset, A.; Sedlakova, Z.; Anouti, M.; Bendova, M.; Jacquemin, J. (2012) J. Chem. Eng. Data 57(8), 2227-2235.",commercial source
1-ethyl-3-methylimidazolium trifluoromethanesulfonate,AAyCVz,hObZU,22292.79193,7324.650105,0.91,CCN1C=C[N+](=C1)C.C(F)(F)(F)S(=O)(=O)[O-],1-ethyl-3-methylimidazolium,trifluoromethanesulfonate,CCN1C=C[N+](=C1)C,C(F)(F)(F)S(=O)(=O)[O-],"Nordness, O.; Simoni, L. D.; Stadtherr, M. A.; Brennecke, J. F. (2019) J. Phys. Chem. B 123(6), 1348-1358.",commercial source
1-ethyl-3-methylimidazolium ethyl sulfate,AAtWDT,KelSg,31131.45155,113856.4964,0.4,CCN1C=C[N+](=C1)C.CCOS(=O)(=O)[O-],1-ethyl-3-methylimidazolium,ethyl,CCN1C=C[N+](=C1)C,C[CH2],"Nordness, O.; Simoni, L. D.; Stadtherr, M. A.; Brennecke, J. F. (2019) J. Phys. Chem. B 123(6), 1348-1358.",commercial source